 Entering Gaussian System, Link 0=g16
 Initial command:
 /apps/gaussian/g16/l1.exe "/local/Gau-297057.inp" -scrdir="/local/"
 Entering Link 1 = /apps/gaussian/g16/l1.exe PID=    297058.
  
 Copyright (c) 1988-2019, Gaussian, Inc.  All Rights Reserved.
  
 This is part of the Gaussian(R) 16 program.  It is based on
 the Gaussian(R) 09 system (copyright 2009, Gaussian, Inc.),
 the Gaussian(R) 03 system (copyright 2003, Gaussian, Inc.),
 the Gaussian(R) 98 system (copyright 1998, Gaussian, Inc.),
 the Gaussian(R) 94 system (copyright 1995, Gaussian, Inc.),
 the Gaussian 92(TM) system (copyright 1992, Gaussian, Inc.),
 the Gaussian 90(TM) system (copyright 1990, Gaussian, Inc.),
 the Gaussian 88(TM) system (copyright 1988, Gaussian, Inc.),
 the Gaussian 86(TM) system (copyright 1986, Carnegie Mellon
 University), and the Gaussian 82(TM) system (copyright 1983,
 Carnegie Mellon University). Gaussian is a federally registered
 trademark of Gaussian, Inc.
  
 This software contains proprietary and confidential information,
 including trade secrets, belonging to Gaussian, Inc.
  
 This software is provided under written license and may be
 used, copied, transmitted, or stored only in accord with that
 written license.
  
 The following legend is applicable only to US Government
 contracts under FAR:
  
                    RESTRICTED RIGHTS LEGEND
  
 Use, reproduction and disclosure by the US Government is
 subject to restrictions as set forth in subparagraphs (a)
 and (c) of the Commercial Computer Software - Restricted
 Rights clause in FAR 52.227-19.
  
 Gaussian, Inc.
 340 Quinnipiac St., Bldg. 40, Wallingford CT 06492
  
  
 ---------------------------------------------------------------
 Warning -- This program may not be used in any manner that
 competes with the business of Gaussian, Inc. or will provide
 assistance to any competitor of Gaussian, Inc.  The licensee
 of this program is prohibited from giving any competitor of
 Gaussian, Inc. access to this program.  By using this program,
 the user acknowledges that Gaussian, Inc. is engaged in the
 business of creating and licensing software in the field of
 computational chemistry and represents and warrants to the
 licensee that it is not a competitor of Gaussian, Inc. and that
 it will not use this program in any manner prohibited above.
 ---------------------------------------------------------------
  

 Cite this work as:
 Gaussian 16, Revision C.01,
 M. J. Frisch, G. W. Trucks, H. B. Schlegel, G. E. Scuseria, 
 M. A. Robb, J. R. Cheeseman, G. Scalmani, V. Barone, 
 G. A. Petersson, H. Nakatsuji, X. Li, M. Caricato, A. V. Marenich, 
 J. Bloino, B. G. Janesko, R. Gomperts, B. Mennucci, H. P. Hratchian, 
 J. V. Ortiz, A. F. Izmaylov, J. L. Sonnenberg, D. Williams-Young, 
 F. Ding, F. Lipparini, F. Egidi, J. Goings, B. Peng, A. Petrone, 
 T. Henderson, D. Ranasinghe, V. G. Zakrzewski, J. Gao, N. Rega, 
 G. Zheng, W. Liang, M. Hada, M. Ehara, K. Toyota, R. Fukuda, 
 J. Hasegawa, M. Ishida, T. Nakajima, Y. Honda, O. Kitao, H. Nakai, 
 T. Vreven, K. Throssell, J. A. Montgomery, Jr., J. E. Peralta, 
 F. Ogliaro, M. J. Bearpark, J. J. Heyd, E. N. Brothers, K. N. Kudin, 
 V. N. Staroverov, T. A. Keith, R. Kobayashi, J. Normand, 
 K. Raghavachari, A. P. Rendell, J. C. Burant, S. S. Iyengar, 
 J. Tomasi, M. Cossi, J. M. Millam, M. Klene, C. Adamo, R. Cammi, 
 J. W. Ochterski, R. L. Martin, K. Morokuma, O. Farkas, 
 J. B. Foresman, and D. J. Fox, Gaussian, Inc., Wallingford CT, 2019.
 
 ******************************************
 Gaussian 16:  ES64L-G16RevC.01  3-Jul-2019
                 5-Nov-2024 
 ******************************************
 %chk=YZ-VIII-197.chk
 %nprocshared=16
 Will use up to   16 processors via shared memory.
 %mem=16GB
 ----------------------------------------------------------------------
 #p opt wB97XD/6-31G** iop(3/107=0119500000,3/108=0119500000) TDA=(sing
 lets, nstates=4, root=2)
 ----------------------------------------------------------------------
 1/18=20,19=15,26=3,38=1/1,3;
 2/9=110,12=2,17=6,18=5,40=1/2;
 3/5=1,6=6,7=101,11=9,25=1,30=1,71=1,74=-58,107=119500000,108=119500000/1,2,3,8;
 4//1;
 5/5=2,38=5/2;
 8/6=1,10=2,107=2,108=4/1;
 9/8=2,15=2,41=4,42=1,48=1/14;
 10/5=4,28=2/2;
 6/7=2,8=2,9=2,10=2/1;
 7/12=6,13=5,14=2/1,2,3,16;
 1/18=20,19=15,26=3/3(2);
 2/9=110/2;
 99//99;
 2/9=110/2;
 3/5=1,6=6,7=101,11=9,25=1,30=1,71=1,74=-58,107=119500000,108=119500000/1,2,3,8;
 4/5=5,16=3,69=1/1;
 5/5=2,38=5/2;
 8/6=1,10=2,107=2,108=4/1;
 9/8=2,15=2,41=4,42=1,48=1,49=4/14;
 10/5=4,28=2/2;
 7/12=6,13=5,14=2/1,2,3,16;
 1/18=20,19=15,26=3/3(-8);
 2/9=110/2;
 6/7=2,8=2,9=2,10=2/1;
 99/9=10/99;
 Leave Link    1 at Tue Nov  5 08:26:25 2024, MaxMem=  2147483648 cpu:               0.4 elap:               0.0
 (Enter /apps/gaussian/g16/l101.exe)
 ------------------------------------------------------------
 Tuning input file generated by xtune with parameters: w01195
 ------------------------------------------------------------
 Symbolic Z-matrix:
 Charge =  0 Multiplicity = 1
 C                     1.23841   1.74948   1.08534 
 C                     2.54265   0.74201  -0.47821 
 C                     0.20541   2.10318   1.95067 
 C                     2.51495   2.34322   1.16914 
 C                     3.02388  -0.02308  -1.53833 
 C                     3.34608   1.70155   0.1718 
 C                     0.45996   3.1015    2.88558 
 H                    -0.76659   1.62744   1.90155 
 C                     2.74959   3.33928   2.11944 
 C                     4.35032   0.15989  -1.91588 
 H                     2.39738  -0.74165  -2.05274 
 C                     4.67336   1.87226  -0.22773 
 C                     1.71625   3.71924   2.96903 
 H                    -0.33426   3.40553   3.5588 
 H                     3.72623   3.80573   2.1949 
 C                     5.17134   1.09327  -1.26648 
 H                     4.75215  -0.43643  -2.72778 
 H                     5.30383   2.6058    0.26375 
 C                     0.17465  -0.03457  -0.30342 
 C                    -1.02318   0.54818  -0.78607 
 C                    -2.0912   -0.26059  -1.17252 
 C                    -1.98475  -1.64011  -1.05933 
 C                    -0.82605  -2.23966  -0.58871 
 C                     0.26088  -1.44525  -0.21777 
 N                     1.2581    0.7736    0.08052 
 S                    -3.40103  -2.66341  -1.48181 
 O                    -4.13391  -1.98045  -2.54838 
 O                    -2.91596  -4.03587  -1.63236 
 H                     1.88302   4.49571   3.70768 
 H                     6.20193   1.21128  -1.58307 
 H                    -2.98279   0.19533  -1.58628 
 H                    -0.75994  -3.31762  -0.50023 
 C                    -4.90096  -3.3896    2.21069 
 C                    -4.15375  -3.48796   1.03903 
 C                    -4.39372  -2.57801   0.01033 
 C                    -5.36414  -1.58275   0.12202 
 C                    -6.10355  -1.49475   1.29988 
 C                    -5.86915  -2.39313   2.34165 
 H                    -4.73017  -4.09305   3.01804 
 H                    -3.408    -4.26435   0.91259 
 H                    -5.54494  -0.90777  -0.70662 
 H                    -6.86635  -0.73044   1.39988 
 H                    -6.44791  -2.32105   3.25628 
 C                    -3.85266   4.51939   0.99163 
 C                    -4.03658   3.14618   1.21053 
 C                    -3.20159   2.19972   0.6228 
 C                    -2.17303   2.66633  -0.19712 
 C                    -1.96627   4.04533  -0.42064 
 C                    -2.81907   4.9745    0.17958 
 H                    -4.5222    5.23103   1.46225 
 H                    -4.84542   2.80998   1.8509 
 H                    -3.34897   1.14055   0.80325 
 H                    -2.67222   6.03724   0.0179 
 C                    -0.35986   2.85197  -1.55168 
 C                     0.70938   2.60117  -2.4089 
 C                     1.36042   3.69777  -2.96256 
 C                     0.94469   5.00994  -2.68858 
 C                    -0.14508   5.24938  -1.85984 
 C                    -0.81024   4.16275  -1.28559 
 H                     1.03058   1.59262  -2.6371 
 H                     2.20644   3.52921  -3.61981 
 H                     1.47502   5.84329  -3.13636 
 H                    -0.47717   6.26326  -1.66248 
 N                    -1.18348   1.94525  -0.87538 
 C                     4.03381  -4.72809  -1.62877 
 C                     2.87678  -4.3707   -2.33672 
 C                     1.93574  -3.49862  -1.79619 
 C                     2.18337  -2.99323  -0.51932 
 C                     3.34574  -3.33616   0.20532 
 C                     4.27443  -4.21364  -0.35924 
 H                     4.74596  -5.41179  -2.07771 
 H                     2.70594  -4.78195  -3.32587 
 H                     1.04589  -3.22823  -2.35361 
 H                     5.17305  -4.485     0.18485 
 C                     2.08978  -1.86953   1.45233 
 C                     1.69     -1.10867   2.54898 
 C                     2.53878  -1.06986   3.64964 
 C                     3.74435  -1.78781   3.66848 
 C                     4.11824  -2.57252   2.58371 
 C                     3.28462  -2.62066   1.46326 
 H                     0.75649  -0.55993   2.55004 
 H                     2.25804  -0.46977   4.50835 
 H                     4.38478  -1.73505   4.54217 
 H                     5.04172  -3.14165   2.6055 
 N                     1.43044  -2.08662   0.23749 
 
 ITRead=  0  0  0  0  0  0  0  0  0  0  0  0  0  0  0  0  0  0  0  0
 ITRead=  0  0  0  0  0  0  0  0  0  0  0  0  0  0  0  0  0  0  0  0
 ITRead=  0  0  0  0  0  0  0  0  0  0  0  0  0  0  0  0  0  0  0  0
 ITRead=  0  0  0  0  0  0  0  0  0  0  0  0  0  0  0  0  0  0  0  0
 ITRead=  0  0  0  0  0
 MicOpt= -1 -1 -1 -1 -1 -1 -1 -1 -1 -1 -1 -1 -1 -1 -1 -1 -1 -1 -1 -1
 MicOpt= -1 -1 -1 -1 -1 -1 -1 -1 -1 -1 -1 -1 -1 -1 -1 -1 -1 -1 -1 -1
 MicOpt= -1 -1 -1 -1 -1 -1 -1 -1 -1 -1 -1 -1 -1 -1 -1 -1 -1 -1 -1 -1
 MicOpt= -1 -1 -1 -1 -1 -1 -1 -1 -1 -1 -1 -1 -1 -1 -1 -1 -1 -1 -1 -1
 MicOpt= -1 -1 -1 -1 -1
 NAtoms=     85 NQM=       85 NQMF=       0 NMMI=      0 NMMIF=      0
                NMic=       0 NMicF=      0.
                    Isotopes and Nuclear Properties:
 (Nuclear quadrupole moments (NQMom) in fm**2, nuclear magnetic moments (NMagM)
  in nuclear magnetons)

  Atom         1           2           3           4           5           6           7           8           9          10
 IAtWgt=          12          12          12          12          12          12          12           1          12          12
 AtmWgt=  12.0000000  12.0000000  12.0000000  12.0000000  12.0000000  12.0000000  12.0000000   1.0078250  12.0000000  12.0000000
 NucSpn=           0           0           0           0           0           0           0           1           0           0
 AtZEff=  -0.0000000  -0.0000000  -0.0000000  -0.0000000  -0.0000000  -0.0000000  -0.0000000  -0.0000000  -0.0000000  -0.0000000
 NQMom=    0.0000000   0.0000000   0.0000000   0.0000000   0.0000000   0.0000000   0.0000000   0.0000000   0.0000000   0.0000000
 NMagM=    0.0000000   0.0000000   0.0000000   0.0000000   0.0000000   0.0000000   0.0000000   2.7928460   0.0000000   0.0000000
 AtZNuc=   6.0000000   6.0000000   6.0000000   6.0000000   6.0000000   6.0000000   6.0000000   1.0000000   6.0000000   6.0000000

  Atom        11          12          13          14          15          16          17          18          19          20
 IAtWgt=           1          12          12           1           1          12           1           1          12          12
 AtmWgt=   1.0078250  12.0000000  12.0000000   1.0078250   1.0078250  12.0000000   1.0078250   1.0078250  12.0000000  12.0000000
 NucSpn=           1           0           0           1           1           0           1           1           0           0
 AtZEff=  -0.0000000  -0.0000000  -0.0000000  -0.0000000  -0.0000000  -0.0000000  -0.0000000  -0.0000000  -0.0000000  -0.0000000
 NQMom=    0.0000000   0.0000000   0.0000000   0.0000000   0.0000000   0.0000000   0.0000000   0.0000000   0.0000000   0.0000000
 NMagM=    2.7928460   0.0000000   0.0000000   2.7928460   2.7928460   0.0000000   2.7928460   2.7928460   0.0000000   0.0000000
 AtZNuc=   1.0000000   6.0000000   6.0000000   1.0000000   1.0000000   6.0000000   1.0000000   1.0000000   6.0000000   6.0000000

  Atom        21          22          23          24          25          26          27          28          29          30
 IAtWgt=          12          12          12          12          14          32          16          16           1           1
 AtmWgt=  12.0000000  12.0000000  12.0000000  12.0000000  14.0030740  31.9720718  15.9949146  15.9949146   1.0078250   1.0078250
 NucSpn=           0           0           0           0           2           0           0           0           1           1
 AtZEff=  -0.0000000  -0.0000000  -0.0000000  -0.0000000  -0.0000000  -0.0000000  -0.0000000  -0.0000000  -0.0000000  -0.0000000
 NQMom=    0.0000000   0.0000000   0.0000000   0.0000000   2.0440000   0.0000000   0.0000000   0.0000000   0.0000000   0.0000000
 NMagM=    0.0000000   0.0000000   0.0000000   0.0000000   0.4037610   0.0000000   0.0000000   0.0000000   2.7928460   2.7928460
 AtZNuc=   6.0000000   6.0000000   6.0000000   6.0000000   7.0000000  16.0000000   8.0000000   8.0000000   1.0000000   1.0000000

  Atom        31          32          33          34          35          36          37          38          39          40
 IAtWgt=           1           1          12          12          12          12          12          12           1           1
 AtmWgt=   1.0078250   1.0078250  12.0000000  12.0000000  12.0000000  12.0000000  12.0000000  12.0000000   1.0078250   1.0078250
 NucSpn=           1           1           0           0           0           0           0           0           1           1
 AtZEff=  -0.0000000  -0.0000000  -0.0000000  -0.0000000  -0.0000000  -0.0000000  -0.0000000  -0.0000000  -0.0000000  -0.0000000
 NQMom=    0.0000000   0.0000000   0.0000000   0.0000000   0.0000000   0.0000000   0.0000000   0.0000000   0.0000000   0.0000000
 NMagM=    2.7928460   2.7928460   0.0000000   0.0000000   0.0000000   0.0000000   0.0000000   0.0000000   2.7928460   2.7928460
 AtZNuc=   1.0000000   1.0000000   6.0000000   6.0000000   6.0000000   6.0000000   6.0000000   6.0000000   1.0000000   1.0000000

  Atom        41          42          43          44          45          46          47          48          49          50
 IAtWgt=           1           1           1          12          12          12          12          12          12           1
 AtmWgt=   1.0078250   1.0078250   1.0078250  12.0000000  12.0000000  12.0000000  12.0000000  12.0000000  12.0000000   1.0078250
 NucSpn=           1           1           1           0           0           0           0           0           0           1
 AtZEff=  -0.0000000  -0.0000000  -0.0000000  -0.0000000  -0.0000000  -0.0000000  -0.0000000  -0.0000000  -0.0000000  -0.0000000
 NQMom=    0.0000000   0.0000000   0.0000000   0.0000000   0.0000000   0.0000000   0.0000000   0.0000000   0.0000000   0.0000000
 NMagM=    2.7928460   2.7928460   2.7928460   0.0000000   0.0000000   0.0000000   0.0000000   0.0000000   0.0000000   2.7928460
 AtZNuc=   1.0000000   1.0000000   1.0000000   6.0000000   6.0000000   6.0000000   6.0000000   6.0000000   6.0000000   1.0000000

  Atom        51          52          53          54          55          56          57          58          59          60
 IAtWgt=           1           1           1          12          12          12          12          12          12           1
 AtmWgt=   1.0078250   1.0078250   1.0078250  12.0000000  12.0000000  12.0000000  12.0000000  12.0000000  12.0000000   1.0078250
 NucSpn=           1           1           1           0           0           0           0           0           0           1
 AtZEff=  -0.0000000  -0.0000000  -0.0000000  -0.0000000  -0.0000000  -0.0000000  -0.0000000  -0.0000000  -0.0000000  -0.0000000
 NQMom=    0.0000000   0.0000000   0.0000000   0.0000000   0.0000000   0.0000000   0.0000000   0.0000000   0.0000000   0.0000000
 NMagM=    2.7928460   2.7928460   2.7928460   0.0000000   0.0000000   0.0000000   0.0000000   0.0000000   0.0000000   2.7928460
 AtZNuc=   1.0000000   1.0000000   1.0000000   6.0000000   6.0000000   6.0000000   6.0000000   6.0000000   6.0000000   1.0000000

  Atom        61          62          63          64          65          66          67          68          69          70
 IAtWgt=           1           1           1          14          12          12          12          12          12          12
 AtmWgt=   1.0078250   1.0078250   1.0078250  14.0030740  12.0000000  12.0000000  12.0000000  12.0000000  12.0000000  12.0000000
 NucSpn=           1           1           1           2           0           0           0           0           0           0
 AtZEff=  -0.0000000  -0.0000000  -0.0000000  -0.0000000  -0.0000000  -0.0000000  -0.0000000  -0.0000000  -0.0000000  -0.0000000
 NQMom=    0.0000000   0.0000000   0.0000000   2.0440000   0.0000000   0.0000000   0.0000000   0.0000000   0.0000000   0.0000000
 NMagM=    2.7928460   2.7928460   2.7928460   0.4037610   0.0000000   0.0000000   0.0000000   0.0000000   0.0000000   0.0000000
 AtZNuc=   1.0000000   1.0000000   1.0000000   7.0000000   6.0000000   6.0000000   6.0000000   6.0000000   6.0000000   6.0000000

  Atom        71          72          73          74          75          76          77          78          79          80
 IAtWgt=           1           1           1           1          12          12          12          12          12          12
 AtmWgt=   1.0078250   1.0078250   1.0078250   1.0078250  12.0000000  12.0000000  12.0000000  12.0000000  12.0000000  12.0000000
 NucSpn=           1           1           1           1           0           0           0           0           0           0
 AtZEff=  -0.0000000  -0.0000000  -0.0000000  -0.0000000  -0.0000000  -0.0000000  -0.0000000  -0.0000000  -0.0000000  -0.0000000
 NQMom=    0.0000000   0.0000000   0.0000000   0.0000000   0.0000000   0.0000000   0.0000000   0.0000000   0.0000000   0.0000000
 NMagM=    2.7928460   2.7928460   2.7928460   2.7928460   0.0000000   0.0000000   0.0000000   0.0000000   0.0000000   0.0000000
 AtZNuc=   1.0000000   1.0000000   1.0000000   1.0000000   6.0000000   6.0000000   6.0000000   6.0000000   6.0000000   6.0000000

  Atom        81          82          83          84          85
 IAtWgt=           1           1           1           1          14
 AtmWgt=   1.0078250   1.0078250   1.0078250   1.0078250  14.0030740
 NucSpn=           1           1           1           1           2
 AtZEff=  -0.0000000  -0.0000000  -0.0000000  -0.0000000  -0.0000000
 NQMom=    0.0000000   0.0000000   0.0000000   0.0000000   2.0440000
 NMagM=    2.7928460   2.7928460   2.7928460   2.7928460   0.4037610
 AtZNuc=   1.0000000   1.0000000   1.0000000   1.0000000   7.0000000
 Leave Link  101 at Tue Nov  5 08:26:26 2024, MaxMem=  2147483648 cpu:               5.3 elap:               0.4
 (Enter /apps/gaussian/g16/l103.exe)

 GradGradGradGradGradGradGradGradGradGradGradGradGradGradGradGradGradGrad
 Berny optimization.
 Initialization pass.
                           ----------------------------
                           !    Initial Parameters    !
                           ! (Angstroms and Degrees)  !
 --------------------------                            --------------------------
 ! Name  Definition              Value          Derivative Info.                !
 --------------------------------------------------------------------------------
 ! R1    R(1,3)                  1.3932         estimate D2E/DX2                !
 ! R2    R(1,4)                  1.4104         estimate D2E/DX2                !
 ! R3    R(1,25)                 1.4009         estimate D2E/DX2                !
 ! R4    R(2,5)                  1.3931         estimate D2E/DX2                !
 ! R5    R(2,6)                  1.4102         estimate D2E/DX2                !
 ! R6    R(2,25)                 1.4012         estimate D2E/DX2                !
 ! R7    R(3,7)                  1.3912         estimate D2E/DX2                !
 ! R8    R(3,8)                  1.0833         estimate D2E/DX2                !
 ! R9    R(4,6)                  1.4482         estimate D2E/DX2                !
 ! R10   R(4,9)                  1.3965         estimate D2E/DX2                !
 ! R11   R(5,10)                 1.3912         estimate D2E/DX2                !
 ! R12   R(5,11)                 1.0833         estimate D2E/DX2                !
 ! R13   R(6,12)                 1.3966         estimate D2E/DX2                !
 ! R14   R(7,13)                 1.4024         estimate D2E/DX2                !
 ! R15   R(7,14)                 1.0846         estimate D2E/DX2                !
 ! R16   R(9,13)                 1.3907         estimate D2E/DX2                !
 ! R17   R(9,15)                 1.0849         estimate D2E/DX2                !
 ! R18   R(10,16)                1.4025         estimate D2E/DX2                !
 ! R19   R(10,17)                1.0846         estimate D2E/DX2                !
 ! R20   R(12,16)                1.3906         estimate D2E/DX2                !
 ! R21   R(12,18)                1.085          estimate D2E/DX2                !
 ! R22   R(13,29)                1.0846         estimate D2E/DX2                !
 ! R23   R(16,30)                1.0846         estimate D2E/DX2                !
 ! R24   R(19,20)                1.4168         estimate D2E/DX2                !
 ! R25   R(19,24)                1.4159         estimate D2E/DX2                !
 ! R26   R(19,25)                1.4051         estimate D2E/DX2                !
 ! R27   R(20,21)                1.3943         estimate D2E/DX2                !
 ! R28   R(20,64)                1.4091         estimate D2E/DX2                !
 ! R29   R(21,22)                1.3882         estimate D2E/DX2                !
 ! R30   R(21,31)                1.0835         estimate D2E/DX2                !
 ! R31   R(22,23)                1.3869         estimate D2E/DX2                !
 ! R32   R(22,26)                1.7976         estimate D2E/DX2                !
 ! R33   R(23,24)                1.3965         estimate D2E/DX2                !
 ! R34   R(23,32)                1.0836         estimate D2E/DX2                !
 ! R35   R(24,85)                1.4094         estimate D2E/DX2                !
 ! R36   R(26,27)                1.4632         estimate D2E/DX2                !
 ! R37   R(26,28)                1.4634         estimate D2E/DX2                !
 ! R38   R(26,35)                1.7942         estimate D2E/DX2                !
 ! R39   R(33,34)                1.3931         estimate D2E/DX2                !
 ! R40   R(33,38)                1.3955         estimate D2E/DX2                !
 ! R41   R(33,39)                1.0844         estimate D2E/DX2                !
 ! R42   R(34,35)                1.3942         estimate D2E/DX2                !
 ! R43   R(34,40)                1.0839         estimate D2E/DX2                !
 ! R44   R(35,36)                1.3945         estimate D2E/DX2                !
 ! R45   R(36,37)                1.3935         estimate D2E/DX2                !
 ! R46   R(36,41)                1.0839         estimate D2E/DX2                !
 ! R47   R(37,38)                1.3955         estimate D2E/DX2                !
 ! R48   R(37,42)                1.0845         estimate D2E/DX2                !
 ! R49   R(38,43)                1.0848         estimate D2E/DX2                !
 ! R50   R(44,45)                1.4027         estimate D2E/DX2                !
 ! R51   R(44,49)                1.391          estimate D2E/DX2                !
 ! R52   R(44,50)                1.0845         estimate D2E/DX2                !
 ! R53   R(45,46)                1.3923         estimate D2E/DX2                !
 ! R54   R(45,51)                1.085          estimate D2E/DX2                !
 ! R55   R(46,47)                1.3957         estimate D2E/DX2                !
 ! R56   R(46,52)                1.0845         estimate D2E/DX2                !
 ! R57   R(47,48)                1.4122         estimate D2E/DX2                !
 ! R58   R(47,64)                1.3997         estimate D2E/DX2                !
 ! R59   R(48,49)                1.3967         estimate D2E/DX2                !
 ! R60   R(48,59)                1.4486         estimate D2E/DX2                !
 ! R61   R(49,53)                1.0849         estimate D2E/DX2                !
 ! R62   R(54,55)                1.3932         estimate D2E/DX2                !
 ! R63   R(54,59)                1.4113         estimate D2E/DX2                !
 ! R64   R(54,64)                1.3992         estimate D2E/DX2                !
 ! R65   R(55,56)                1.3903         estimate D2E/DX2                !
 ! R66   R(55,60)                1.0828         estimate D2E/DX2                !
 ! R67   R(56,57)                1.4035         estimate D2E/DX2                !
 ! R68   R(56,61)                1.0845         estimate D2E/DX2                !
 ! R69   R(57,58)                1.3899         estimate D2E/DX2                !
 ! R70   R(57,62)                1.0845         estimate D2E/DX2                !
 ! R71   R(58,59)                1.3975         estimate D2E/DX2                !
 ! R72   R(58,63)                1.085          estimate D2E/DX2                !
 ! R73   R(65,66)                1.4027         estimate D2E/DX2                !
 ! R74   R(65,70)                1.3908         estimate D2E/DX2                !
 ! R75   R(65,71)                1.0845         estimate D2E/DX2                !
 ! R76   R(66,67)                1.3922         estimate D2E/DX2                !
 ! R77   R(66,72)                1.0848         estimate D2E/DX2                !
 ! R78   R(67,68)                1.3954         estimate D2E/DX2                !
 ! R79   R(67,73)                1.0843         estimate D2E/DX2                !
 ! R80   R(68,69)                1.412          estimate D2E/DX2                !
 ! R81   R(68,85)                1.4006         estimate D2E/DX2                !
 ! R82   R(69,70)                1.3968         estimate D2E/DX2                !
 ! R83   R(69,80)                1.4485         estimate D2E/DX2                !
 ! R84   R(70,74)                1.085          estimate D2E/DX2                !
 ! R85   R(75,76)                1.3933         estimate D2E/DX2                !
 ! R86   R(75,80)                1.4114         estimate D2E/DX2                !
 ! R87   R(75,85)                1.3992         estimate D2E/DX2                !
 ! R88   R(76,77)                1.3905         estimate D2E/DX2                !
 ! R89   R(76,81)                1.0829         estimate D2E/DX2                !
 ! R90   R(77,78)                1.4033         estimate D2E/DX2                !
 ! R91   R(77,82)                1.0846         estimate D2E/DX2                !
 ! R92   R(78,79)                1.3901         estimate D2E/DX2                !
 ! R93   R(78,83)                1.0846         estimate D2E/DX2                !
 ! R94   R(79,80)                1.3974         estimate D2E/DX2                !
 ! R95   R(79,84)                1.085          estimate D2E/DX2                !
 ! A1    A(3,1,4)              121.8253         estimate D2E/DX2                !
 ! A2    A(3,1,25)             129.2565         estimate D2E/DX2                !
 ! A3    A(4,1,25)             108.8549         estimate D2E/DX2                !
 ! A4    A(5,2,6)              121.8456         estimate D2E/DX2                !
 ! A5    A(5,2,25)             129.2353         estimate D2E/DX2                !
 ! A6    A(6,2,25)             108.8544         estimate D2E/DX2                !
 ! A7    A(1,3,7)              117.6389         estimate D2E/DX2                !
 ! A8    A(1,3,8)              121.7112         estimate D2E/DX2                !
 ! A9    A(7,3,8)              120.6491         estimate D2E/DX2                !
 ! A10   A(1,4,6)              106.9781         estimate D2E/DX2                !
 ! A11   A(1,4,9)              119.5233         estimate D2E/DX2                !
 ! A12   A(6,4,9)              133.491          estimate D2E/DX2                !
 ! A13   A(2,5,10)             117.6214         estimate D2E/DX2                !
 ! A14   A(2,5,11)             121.7278         estimate D2E/DX2                !
 ! A15   A(10,5,11)            120.6498         estimate D2E/DX2                !
 ! A16   A(2,6,4)              106.9747         estimate D2E/DX2                !
 ! A17   A(2,6,12)             119.5219         estimate D2E/DX2                !
 ! A18   A(4,6,12)             133.4953         estimate D2E/DX2                !
 ! A19   A(3,7,13)             121.3302         estimate D2E/DX2                !
 ! A20   A(3,7,14)             118.9641         estimate D2E/DX2                !
 ! A21   A(13,7,14)            119.7054         estimate D2E/DX2                !
 ! A22   A(4,9,13)             119.0615         estimate D2E/DX2                !
 ! A23   A(4,9,15)             120.346          estimate D2E/DX2                !
 ! A24   A(13,9,15)            120.592          estimate D2E/DX2                !
 ! A25   A(5,10,16)            121.3332         estimate D2E/DX2                !
 ! A26   A(5,10,17)            118.9532         estimate D2E/DX2                !
 ! A27   A(16,10,17)           119.7134         estimate D2E/DX2                !
 ! A28   A(6,12,16)            119.0485         estimate D2E/DX2                !
 ! A29   A(6,12,18)            120.3526         estimate D2E/DX2                !
 ! A30   A(16,12,18)           120.5983         estimate D2E/DX2                !
 ! A31   A(7,13,9)             120.5918         estimate D2E/DX2                !
 ! A32   A(7,13,29)            119.578          estimate D2E/DX2                !
 ! A33   A(9,13,29)            119.829          estimate D2E/DX2                !
 ! A34   A(10,16,12)           120.6005         estimate D2E/DX2                !
 ! A35   A(10,16,30)           119.5719         estimate D2E/DX2                !
 ! A36   A(12,16,30)           119.8265         estimate D2E/DX2                !
 ! A37   A(20,19,24)           118.8083         estimate D2E/DX2                !
 ! A38   A(20,19,25)           120.558          estimate D2E/DX2                !
 ! A39   A(24,19,25)           120.6337         estimate D2E/DX2                !
 ! A40   A(19,20,21)           120.2275         estimate D2E/DX2                !
 ! A41   A(19,20,64)           121.7072         estimate D2E/DX2                !
 ! A42   A(21,20,64)           118.0601         estimate D2E/DX2                !
 ! A43   A(20,21,22)           119.6742         estimate D2E/DX2                !
 ! A44   A(20,21,31)           119.477          estimate D2E/DX2                !
 ! A45   A(22,21,31)           120.8217         estimate D2E/DX2                !
 ! A46   A(21,22,23)           121.4196         estimate D2E/DX2                !
 ! A47   A(21,22,26)           119.0844         estimate D2E/DX2                !
 ! A48   A(23,22,26)           119.4648         estimate D2E/DX2                !
 ! A49   A(22,23,24)           119.6359         estimate D2E/DX2                !
 ! A50   A(22,23,32)           120.5779         estimate D2E/DX2                !
 ! A51   A(24,23,32)           119.7849         estimate D2E/DX2                !
 ! A52   A(19,24,23)           120.2195         estimate D2E/DX2                !
 ! A53   A(19,24,85)           121.5638         estimate D2E/DX2                !
 ! A54   A(23,24,85)           118.2167         estimate D2E/DX2                !
 ! A55   A(1,25,2)             108.3378         estimate D2E/DX2                !
 ! A56   A(1,25,19)            125.8613         estimate D2E/DX2                !
 ! A57   A(2,25,19)            125.8008         estimate D2E/DX2                !
 ! A58   A(22,26,27)           107.4707         estimate D2E/DX2                !
 ! A59   A(22,26,28)           107.2712         estimate D2E/DX2                !
 ! A60   A(22,26,35)           102.3188         estimate D2E/DX2                !
 ! A61   A(27,26,28)           121.9218         estimate D2E/DX2                !
 ! A62   A(27,26,35)           107.8699         estimate D2E/DX2                !
 ! A63   A(28,26,35)           108.2754         estimate D2E/DX2                !
 ! A64   A(34,33,38)           120.0964         estimate D2E/DX2                !
 ! A65   A(34,33,39)           119.7296         estimate D2E/DX2                !
 ! A66   A(38,33,39)           120.1734         estimate D2E/DX2                !
 ! A67   A(33,34,35)           118.8255         estimate D2E/DX2                !
 ! A68   A(33,34,40)           121.1781         estimate D2E/DX2                !
 ! A69   A(35,34,40)           119.9888         estimate D2E/DX2                !
 ! A70   A(26,35,34)           119.1646         estimate D2E/DX2                !
 ! A71   A(26,35,36)           119.0507         estimate D2E/DX2                !
 ! A72   A(34,35,36)           121.7677         estimate D2E/DX2                !
 ! A73   A(35,36,37)           118.8167         estimate D2E/DX2                !
 ! A74   A(35,36,41)           119.9513         estimate D2E/DX2                !
 ! A75   A(37,36,41)           121.2208         estimate D2E/DX2                !
 ! A76   A(36,37,38)           120.0815         estimate D2E/DX2                !
 ! A77   A(36,37,42)           119.7146         estimate D2E/DX2                !
 ! A78   A(38,37,42)           120.2022         estimate D2E/DX2                !
 ! A79   A(33,38,37)           120.4093         estimate D2E/DX2                !
 ! A80   A(33,38,43)           119.7842         estimate D2E/DX2                !
 ! A81   A(37,38,43)           119.8051         estimate D2E/DX2                !
 ! A82   A(45,44,49)           120.5876         estimate D2E/DX2                !
 ! A83   A(45,44,50)           119.5855         estimate D2E/DX2                !
 ! A84   A(49,44,50)           119.8268         estimate D2E/DX2                !
 ! A85   A(44,45,46)           121.3996         estimate D2E/DX2                !
 ! A86   A(44,45,51)           119.5509         estimate D2E/DX2                !
 ! A87   A(46,45,51)           119.0495         estimate D2E/DX2                !
 ! A88   A(45,46,47)           117.561          estimate D2E/DX2                !
 ! A89   A(45,46,52)           120.8091         estimate D2E/DX2                !
 ! A90   A(47,46,52)           121.6295         estimate D2E/DX2                !
 ! A91   A(46,47,48)           121.8265         estimate D2E/DX2                !
 ! A92   A(46,47,64)           129.3044         estimate D2E/DX2                !
 ! A93   A(48,47,64)           108.8346         estimate D2E/DX2                !
 ! A94   A(47,48,49)           119.4841         estimate D2E/DX2                !
 ! A95   A(47,48,59)           106.8885         estimate D2E/DX2                !
 ! A96   A(49,48,59)           133.6248         estimate D2E/DX2                !
 ! A97   A(44,49,48)           119.1372         estimate D2E/DX2                !
 ! A98   A(44,49,53)           120.5341         estimate D2E/DX2                !
 ! A99   A(48,49,53)           120.3278         estimate D2E/DX2                !
 ! A100  A(55,54,59)           121.8783         estimate D2E/DX2                !
 ! A101  A(55,54,64)           129.2343         estimate D2E/DX2                !
 ! A102  A(59,54,64)           108.8369         estimate D2E/DX2                !
 ! A103  A(54,55,56)           117.5438         estimate D2E/DX2                !
 ! A104  A(54,55,60)           121.669          estimate D2E/DX2                !
 ! A105  A(56,55,60)           120.7866         estimate D2E/DX2                !
 ! A106  A(55,56,57)           121.3996         estimate D2E/DX2                !
 ! A107  A(55,56,61)           118.9504         estimate D2E/DX2                !
 ! A108  A(57,56,61)           119.6499         estimate D2E/DX2                !
 ! A109  A(56,57,58)           120.6454         estimate D2E/DX2                !
 ! A110  A(56,57,62)           119.536          estimate D2E/DX2                !
 ! A111  A(58,57,62)           119.8162         estimate D2E/DX2                !
 ! A112  A(57,58,59)           118.9643         estimate D2E/DX2                !
 ! A113  A(57,58,63)           120.6263         estimate D2E/DX2                !
 ! A114  A(59,58,63)           120.4093         estimate D2E/DX2                !
 ! A115  A(48,59,54)           106.9759         estimate D2E/DX2                !
 ! A116  A(48,59,58)           133.4911         estimate D2E/DX2                !
 ! A117  A(54,59,58)           119.5253         estimate D2E/DX2                !
 ! A118  A(20,64,47)           124.0897         estimate D2E/DX2                !
 ! A119  A(20,64,54)           127.3119         estimate D2E/DX2                !
 ! A120  A(47,64,54)           108.4527         estimate D2E/DX2                !
 ! A121  A(66,65,70)           120.6078         estimate D2E/DX2                !
 ! A122  A(66,65,71)           119.5603         estimate D2E/DX2                !
 ! A123  A(70,65,71)           119.8319         estimate D2E/DX2                !
 ! A124  A(65,66,67)           121.4114         estimate D2E/DX2                !
 ! A125  A(65,66,72)           119.5716         estimate D2E/DX2                !
 ! A126  A(67,66,72)           119.0168         estimate D2E/DX2                !
 ! A127  A(66,67,68)           117.5289         estimate D2E/DX2                !
 ! A128  A(66,67,73)           120.7521         estimate D2E/DX2                !
 ! A129  A(68,67,73)           121.7189         estimate D2E/DX2                !
 ! A130  A(67,68,69)           121.8519         estimate D2E/DX2                !
 ! A131  A(67,68,85)           129.3091         estimate D2E/DX2                !
 ! A132  A(69,68,85)           108.8104         estimate D2E/DX2                !
 ! A133  A(68,69,70)           119.5014         estimate D2E/DX2                !
 ! A134  A(68,69,80)           106.917          estimate D2E/DX2                !
 ! A135  A(70,69,80)           133.5798         estimate D2E/DX2                !
 ! A136  A(65,70,69)           119.0964         estimate D2E/DX2                !
 ! A137  A(65,70,74)           120.5661         estimate D2E/DX2                !
 ! A138  A(69,70,74)           120.3367         estimate D2E/DX2                !
 ! A139  A(76,75,80)           121.8318         estimate D2E/DX2                !
 ! A140  A(76,75,85)           129.2643         estimate D2E/DX2                !
 ! A141  A(80,75,85)           108.8497         estimate D2E/DX2                !
 ! A142  A(75,76,77)           117.5889         estimate D2E/DX2                !
 ! A143  A(75,76,81)           121.6581         estimate D2E/DX2                !
 ! A144  A(77,76,81)           120.7521         estimate D2E/DX2                !
 ! A145  A(76,77,78)           121.3841         estimate D2E/DX2                !
 ! A146  A(76,77,82)           118.9577         estimate D2E/DX2                !
 ! A147  A(78,77,82)           119.6582         estimate D2E/DX2                !
 ! A148  A(77,78,79)           120.625          estimate D2E/DX2                !
 ! A149  A(77,78,83)           119.5528         estimate D2E/DX2                !
 ! A150  A(79,78,83)           119.8202         estimate D2E/DX2                !
 ! A151  A(78,79,80)           118.9934         estimate D2E/DX2                !
 ! A152  A(78,79,84)           120.6224         estimate D2E/DX2                !
 ! A153  A(80,79,84)           120.384          estimate D2E/DX2                !
 ! A154  A(69,80,75)           106.9707         estimate D2E/DX2                !
 ! A155  A(69,80,79)           133.4877         estimate D2E/DX2                !
 ! A156  A(75,80,79)           119.5324         estimate D2E/DX2                !
 ! A157  A(24,85,68)           124.4798         estimate D2E/DX2                !
 ! A158  A(24,85,75)           126.9332         estimate D2E/DX2                !
 ! A159  A(68,85,75)           108.438          estimate D2E/DX2                !
 ! D1    D(4,1,3,7)              1.9603         estimate D2E/DX2                !
 ! D2    D(4,1,3,8)           -178.3689         estimate D2E/DX2                !
 ! D3    D(25,1,3,7)           178.7318         estimate D2E/DX2                !
 ! D4    D(25,1,3,8)            -1.5974         estimate D2E/DX2                !
 ! D5    D(3,1,4,6)            177.4045         estimate D2E/DX2                !
 ! D6    D(3,1,4,9)             -1.7211         estimate D2E/DX2                !
 ! D7    D(25,1,4,6)             0.0457         estimate D2E/DX2                !
 ! D8    D(25,1,4,9)          -179.0799         estimate D2E/DX2                !
 ! D9    D(3,1,25,2)          -177.1174         estimate D2E/DX2                !
 ! D10   D(3,1,25,19)            2.969          estimate D2E/DX2                !
 ! D11   D(4,1,25,2)            -0.0158         estimate D2E/DX2                !
 ! D12   D(4,1,25,19)         -179.9294         estimate D2E/DX2                !
 ! D13   D(6,2,5,10)             1.9535         estimate D2E/DX2                !
 ! D14   D(6,2,5,11)          -178.4105         estimate D2E/DX2                !
 ! D15   D(25,2,5,10)          178.6885         estimate D2E/DX2                !
 ! D16   D(25,2,5,11)           -1.6756         estimate D2E/DX2                !
 ! D17   D(5,2,6,4)            177.3773         estimate D2E/DX2                !
 ! D18   D(5,2,6,12)            -1.7282         estimate D2E/DX2                !
 ! D19   D(25,2,6,4)             0.0492         estimate D2E/DX2                !
 ! D20   D(25,2,6,12)         -179.0564         estimate D2E/DX2                !
 ! D21   D(5,2,25,1)          -177.091          estimate D2E/DX2                !
 ! D22   D(5,2,25,19)            2.8227         estimate D2E/DX2                !
 ! D23   D(6,2,25,1)            -0.0215         estimate D2E/DX2                !
 ! D24   D(6,2,25,19)          179.8922         estimate D2E/DX2                !
 ! D25   D(1,3,7,13)            -0.8566         estimate D2E/DX2                !
 ! D26   D(1,3,7,14)           178.9744         estimate D2E/DX2                !
 ! D27   D(8,3,7,13)           179.4689         estimate D2E/DX2                !
 ! D28   D(8,3,7,14)            -0.7001         estimate D2E/DX2                !
 ! D29   D(1,4,6,2)             -0.058          estimate D2E/DX2                !
 ! D30   D(1,4,6,12)           178.8691         estimate D2E/DX2                !
 ! D31   D(9,4,6,2)            178.8931         estimate D2E/DX2                !
 ! D32   D(9,4,6,12)            -2.1798         estimate D2E/DX2                !
 ! D33   D(1,4,9,13)             0.3194         estimate D2E/DX2                !
 ! D34   D(1,4,9,15)          -179.9387         estimate D2E/DX2                !
 ! D35   D(6,4,9,13)          -178.5277         estimate D2E/DX2                !
 ! D36   D(6,4,9,15)             1.2141         estimate D2E/DX2                !
 ! D37   D(2,5,10,16)           -0.8437         estimate D2E/DX2                !
 ! D38   D(2,5,10,17)          178.9888         estimate D2E/DX2                !
 ! D39   D(11,5,10,16)         179.5162         estimate D2E/DX2                !
 ! D40   D(11,5,10,17)          -0.6512         estimate D2E/DX2                !
 ! D41   D(2,6,12,16)            0.3341         estimate D2E/DX2                !
 ! D42   D(2,6,12,18)         -179.9335         estimate D2E/DX2                !
 ! D43   D(4,6,12,16)         -178.4865         estimate D2E/DX2                !
 ! D44   D(4,6,12,18)            1.2458         estimate D2E/DX2                !
 ! D45   D(3,7,13,9)            -0.4871         estimate D2E/DX2                !
 ! D46   D(3,7,13,29)          179.8972         estimate D2E/DX2                !
 ! D47   D(14,7,13,9)          179.6832         estimate D2E/DX2                !
 ! D48   D(14,7,13,29)           0.0675         estimate D2E/DX2                !
 ! D49   D(4,9,13,7)             0.753          estimate D2E/DX2                !
 ! D50   D(4,9,13,29)         -179.6322         estimate D2E/DX2                !
 ! D51   D(15,9,13,7)         -178.9882         estimate D2E/DX2                !
 ! D52   D(15,9,13,29)           0.6266         estimate D2E/DX2                !
 ! D53   D(5,10,16,12)          -0.4919         estimate D2E/DX2                !
 ! D54   D(5,10,16,30)         179.8911         estimate D2E/DX2                !
 ! D55   D(17,10,16,12)        179.6768         estimate D2E/DX2                !
 ! D56   D(17,10,16,30)          0.0599         estimate D2E/DX2                !
 ! D57   D(6,12,16,10)           0.7438         estimate D2E/DX2                !
 ! D58   D(6,12,16,30)        -179.6402         estimate D2E/DX2                !
 ! D59   D(18,12,16,10)       -178.9879         estimate D2E/DX2                !
 ! D60   D(18,12,16,30)          0.6281         estimate D2E/DX2                !
 ! D61   D(24,19,20,21)         -0.2438         estimate D2E/DX2                !
 ! D62   D(24,19,20,64)        178.9148         estimate D2E/DX2                !
 ! D63   D(25,19,20,21)        179.6249         estimate D2E/DX2                !
 ! D64   D(25,19,20,64)         -1.2165         estimate D2E/DX2                !
 ! D65   D(20,19,24,23)         -0.7893         estimate D2E/DX2                !
 ! D66   D(20,19,24,85)        179.1681         estimate D2E/DX2                !
 ! D67   D(25,19,24,23)        179.342          estimate D2E/DX2                !
 ! D68   D(25,19,24,85)         -0.7006         estimate D2E/DX2                !
 ! D69   D(20,19,25,1)          59.7192         estimate D2E/DX2                !
 ! D70   D(20,19,25,2)        -120.1797         estimate D2E/DX2                !
 ! D71   D(24,19,25,1)        -120.4144         estimate D2E/DX2                !
 ! D72   D(24,19,25,2)          59.6867         estimate D2E/DX2                !
 ! D73   D(19,20,21,22)          1.1698         estimate D2E/DX2                !
 ! D74   D(19,20,21,31)       -176.954          estimate D2E/DX2                !
 ! D75   D(64,20,21,22)       -178.0191         estimate D2E/DX2                !
 ! D76   D(64,20,21,31)          3.8572         estimate D2E/DX2                !
 ! D77   D(19,20,64,47)       -119.7798         estimate D2E/DX2                !
 ! D78   D(19,20,64,54)         55.3157         estimate D2E/DX2                !
 ! D79   D(21,20,64,47)         59.3963         estimate D2E/DX2                !
 ! D80   D(21,20,64,54)       -125.5081         estimate D2E/DX2                !
 ! D81   D(20,21,22,23)         -1.0852         estimate D2E/DX2                !
 ! D82   D(20,21,22,26)        176.8704         estimate D2E/DX2                !
 ! D83   D(31,21,22,23)        177.0129         estimate D2E/DX2                !
 ! D84   D(31,21,22,26)         -5.0316         estimate D2E/DX2                !
 ! D85   D(21,22,23,24)          0.05           estimate D2E/DX2                !
 ! D86   D(21,22,23,32)        179.6268         estimate D2E/DX2                !
 ! D87   D(26,22,23,24)       -177.8979         estimate D2E/DX2                !
 ! D88   D(26,22,23,32)          1.6788         estimate D2E/DX2                !
 ! D89   D(21,22,26,27)         31.915          estimate D2E/DX2                !
 ! D90   D(21,22,26,28)        164.6309         estimate D2E/DX2                !
 ! D91   D(21,22,26,35)        -81.5388         estimate D2E/DX2                !
 ! D92   D(23,22,26,27)       -150.0888         estimate D2E/DX2                !
 ! D93   D(23,22,26,28)        -17.3729         estimate D2E/DX2                !
 ! D94   D(23,22,26,35)         96.4574         estimate D2E/DX2                !
 ! D95   D(22,23,24,19)          0.8917         estimate D2E/DX2                !
 ! D96   D(22,23,24,85)       -179.0671         estimate D2E/DX2                !
 ! D97   D(32,23,24,19)       -178.6885         estimate D2E/DX2                !
 ! D98   D(32,23,24,85)          1.3527         estimate D2E/DX2                !
 ! D99   D(19,24,85,68)       -119.7607         estimate D2E/DX2                !
 ! D100  D(19,24,85,75)         55.2817         estimate D2E/DX2                !
 ! D101  D(23,24,85,68)         60.1976         estimate D2E/DX2                !
 ! D102  D(23,24,85,75)       -124.76           estimate D2E/DX2                !
 ! D103  D(22,26,35,34)        -87.2148         estimate D2E/DX2                !
 ! D104  D(22,26,35,36)         91.3124         estimate D2E/DX2                !
 ! D105  D(27,26,35,34)        159.6266         estimate D2E/DX2                !
 ! D106  D(27,26,35,36)        -21.8462         estimate D2E/DX2                !
 ! D107  D(28,26,35,34)         25.8737         estimate D2E/DX2                !
 ! D108  D(28,26,35,36)       -155.5991         estimate D2E/DX2                !
 ! D109  D(38,33,34,35)         -0.0519         estimate D2E/DX2                !
 ! D110  D(38,33,34,40)       -179.0527         estimate D2E/DX2                !
 ! D111  D(39,33,34,35)        179.6693         estimate D2E/DX2                !
 ! D112  D(39,33,34,40)          0.6684         estimate D2E/DX2                !
 ! D113  D(34,33,38,37)          0.4503         estimate D2E/DX2                !
 ! D114  D(34,33,38,43)       -179.9865         estimate D2E/DX2                !
 ! D115  D(39,33,38,37)       -179.2696         estimate D2E/DX2                !
 ! D116  D(39,33,38,43)          0.2936         estimate D2E/DX2                !
 ! D117  D(33,34,35,26)        178.0694         estimate D2E/DX2                !
 ! D118  D(33,34,35,36)         -0.4161         estimate D2E/DX2                !
 ! D119  D(40,34,35,26)         -2.9175         estimate D2E/DX2                !
 ! D120  D(40,34,35,36)        178.5969         estimate D2E/DX2                !
 ! D121  D(26,35,36,37)       -178.0103         estimate D2E/DX2                !
 ! D122  D(26,35,36,41)          3.1883         estimate D2E/DX2                !
 ! D123  D(34,35,36,37)          0.4769         estimate D2E/DX2                !
 ! D124  D(34,35,36,41)       -178.3244         estimate D2E/DX2                !
 ! D125  D(35,36,37,38)         -0.0698         estimate D2E/DX2                !
 ! D126  D(35,36,37,42)       -179.6012         estimate D2E/DX2                !
 ! D127  D(41,36,37,38)        178.7158         estimate D2E/DX2                !
 ! D128  D(41,36,37,42)         -0.8157         estimate D2E/DX2                !
 ! D129  D(36,37,38,33)         -0.3882         estimate D2E/DX2                !
 ! D130  D(36,37,38,43)       -179.9514         estimate D2E/DX2                !
 ! D131  D(42,37,38,33)        179.1409         estimate D2E/DX2                !
 ! D132  D(42,37,38,43)         -0.4223         estimate D2E/DX2                !
 ! D133  D(49,44,45,46)         -0.2833         estimate D2E/DX2                !
 ! D134  D(49,44,45,51)        179.7084         estimate D2E/DX2                !
 ! D135  D(50,44,45,46)        179.8397         estimate D2E/DX2                !
 ! D136  D(50,44,45,51)         -0.1687         estimate D2E/DX2                !
 ! D137  D(45,44,49,48)          0.1992         estimate D2E/DX2                !
 ! D138  D(45,44,49,53)       -179.456          estimate D2E/DX2                !
 ! D139  D(50,44,49,48)       -179.9241         estimate D2E/DX2                !
 ! D140  D(50,44,49,53)          0.4208         estimate D2E/DX2                !
 ! D141  D(44,45,46,47)         -0.1323         estimate D2E/DX2                !
 ! D142  D(44,45,46,52)        179.641          estimate D2E/DX2                !
 ! D143  D(51,45,46,47)        179.876          estimate D2E/DX2                !
 ! D144  D(51,45,46,52)         -0.3507         estimate D2E/DX2                !
 ! D145  D(45,46,47,48)          0.6354         estimate D2E/DX2                !
 ! D146  D(45,46,47,64)        178.2499         estimate D2E/DX2                !
 ! D147  D(52,46,47,48)       -179.1359         estimate D2E/DX2                !
 ! D148  D(52,46,47,64)         -1.5214         estimate D2E/DX2                !
 ! D149  D(46,47,48,49)         -0.7245         estimate D2E/DX2                !
 ! D150  D(46,47,48,59)        178.7605         estimate D2E/DX2                !
 ! D151  D(64,47,48,49)       -178.7744         estimate D2E/DX2                !
 ! D152  D(64,47,48,59)          0.7106         estimate D2E/DX2                !
 ! D153  D(46,47,64,20)         -3.0585         estimate D2E/DX2                !
 ! D154  D(46,47,64,54)       -178.9478         estimate D2E/DX2                !
 ! D155  D(48,47,64,20)        174.8001         estimate D2E/DX2                !
 ! D156  D(48,47,64,54)         -1.0892         estimate D2E/DX2                !
 ! D157  D(47,48,49,44)          0.2895         estimate D2E/DX2                !
 ! D158  D(47,48,49,53)        179.9454         estimate D2E/DX2                !
 ! D159  D(59,48,49,44)       -179.0297         estimate D2E/DX2                !
 ! D160  D(59,48,49,53)          0.6262         estimate D2E/DX2                !
 ! D161  D(47,48,59,54)         -0.0727         estimate D2E/DX2                !
 ! D162  D(47,48,59,58)        178.8703         estimate D2E/DX2                !
 ! D163  D(49,48,59,54)        179.308          estimate D2E/DX2                !
 ! D164  D(49,48,59,58)         -1.7491         estimate D2E/DX2                !
 ! D165  D(59,54,55,56)          2.3946         estimate D2E/DX2                !
 ! D166  D(59,54,55,60)       -177.8767         estimate D2E/DX2                !
 ! D167  D(64,54,55,56)        179.5095         estimate D2E/DX2                !
 ! D168  D(64,54,55,60)         -0.7618         estimate D2E/DX2                !
 ! D169  D(55,54,59,48)        177.0474         estimate D2E/DX2                !
 ! D170  D(55,54,59,58)         -2.0713         estimate D2E/DX2                !
 ! D171  D(64,54,59,48)         -0.5918         estimate D2E/DX2                !
 ! D172  D(64,54,59,58)       -179.7105         estimate D2E/DX2                !
 ! D173  D(55,54,64,20)          7.9112         estimate D2E/DX2                !
 ! D174  D(55,54,64,47)       -176.3693         estimate D2E/DX2                !
 ! D175  D(59,54,64,20)       -174.6771         estimate D2E/DX2                !
 ! D176  D(59,54,64,47)          1.0423         estimate D2E/DX2                !
 ! D177  D(54,55,56,57)         -1.0591         estimate D2E/DX2                !
 ! D178  D(54,55,56,61)        178.978          estimate D2E/DX2                !
 ! D179  D(60,55,56,57)        179.2096         estimate D2E/DX2                !
 ! D180  D(60,55,56,61)         -0.7532         estimate D2E/DX2                !
 ! D181  D(55,56,57,58)         -0.6025         estimate D2E/DX2                !
 ! D182  D(55,56,57,62)        179.9593         estimate D2E/DX2                !
 ! D183  D(61,56,57,58)        179.3601         estimate D2E/DX2                !
 ! D184  D(61,56,57,62)         -0.0781         estimate D2E/DX2                !
 ! D185  D(56,57,58,59)          0.9594         estimate D2E/DX2                !
 ! D186  D(56,57,58,63)       -178.8958         estimate D2E/DX2                !
 ! D187  D(62,57,58,59)       -179.604          estimate D2E/DX2                !
 ! D188  D(62,57,58,63)          0.5408         estimate D2E/DX2                !
 ! D189  D(57,58,59,48)       -178.5001         estimate D2E/DX2                !
 ! D190  D(57,58,59,54)          0.338          estimate D2E/DX2                !
 ! D191  D(63,58,59,48)          1.3554         estimate D2E/DX2                !
 ! D192  D(63,58,59,54)       -179.8065         estimate D2E/DX2                !
 ! D193  D(70,65,66,67)         -0.1585         estimate D2E/DX2                !
 ! D194  D(70,65,66,72)        179.9969         estimate D2E/DX2                !
 ! D195  D(71,65,66,67)        179.8606         estimate D2E/DX2                !
 ! D196  D(71,65,66,72)          0.0159         estimate D2E/DX2                !
 ! D197  D(66,65,70,69)          0.1334         estimate D2E/DX2                !
 ! D198  D(66,65,70,74)       -179.562          estimate D2E/DX2                !
 ! D199  D(71,65,70,69)       -179.8856         estimate D2E/DX2                !
 ! D200  D(71,65,70,74)          0.4189         estimate D2E/DX2                !
 ! D201  D(65,66,67,68)         -0.1514         estimate D2E/DX2                !
 ! D202  D(65,66,67,73)        179.8924         estimate D2E/DX2                !
 ! D203  D(72,66,67,68)        179.6941         estimate D2E/DX2                !
 ! D204  D(72,66,67,73)         -0.2621         estimate D2E/DX2                !
 ! D205  D(66,67,68,69)          0.4913         estimate D2E/DX2                !
 ! D206  D(66,67,68,85)        178.3235         estimate D2E/DX2                !
 ! D207  D(73,67,68,69)       -179.553          estimate D2E/DX2                !
 ! D208  D(73,67,68,85)         -1.7208         estimate D2E/DX2                !
 ! D209  D(67,68,69,70)         -0.522          estimate D2E/DX2                !
 ! D210  D(67,68,69,80)        179.0464         estimate D2E/DX2                !
 ! D211  D(85,68,69,70)       -178.7502         estimate D2E/DX2                !
 ! D212  D(85,68,69,80)          0.8182         estimate D2E/DX2                !
 ! D213  D(67,68,85,24)         -3.4488         estimate D2E/DX2                !
 ! D214  D(67,68,85,75)       -179.2731         estimate D2E/DX2                !
 ! D215  D(69,68,85,24)        174.606          estimate D2E/DX2                !
 ! D216  D(69,68,85,75)         -1.2183         estimate D2E/DX2                !
 ! D217  D(68,69,70,65)          0.1964         estimate D2E/DX2                !
 ! D218  D(68,69,70,74)        179.8926         estimate D2E/DX2                !
 ! D219  D(80,69,70,65)       -179.2336         estimate D2E/DX2                !
 ! D220  D(80,69,70,74)          0.4626         estimate D2E/DX2                !
 ! D221  D(68,69,80,75)         -0.119          estimate D2E/DX2                !
 ! D222  D(68,69,80,79)        178.7289         estimate D2E/DX2                !
 ! D223  D(70,69,80,75)        179.3624         estimate D2E/DX2                !
 ! D224  D(70,69,80,79)         -1.7896         estimate D2E/DX2                !
 ! D225  D(80,75,76,77)          2.4256         estimate D2E/DX2                !
 ! D226  D(80,75,76,81)       -177.9178         estimate D2E/DX2                !
 ! D227  D(85,75,76,77)        179.4361         estimate D2E/DX2                !
 ! D228  D(85,75,76,81)         -0.9073         estimate D2E/DX2                !
 ! D229  D(76,75,80,69)        176.9304         estimate D2E/DX2                !
 ! D230  D(76,75,80,79)         -2.109          estimate D2E/DX2                !
 ! D231  D(85,75,80,69)         -0.6242         estimate D2E/DX2                !
 ! D232  D(85,75,80,79)       -179.6636         estimate D2E/DX2                !
 ! D233  D(76,75,85,24)          8.1319         estimate D2E/DX2                !
 ! D234  D(76,75,85,68)       -176.1746         estimate D2E/DX2                !
 ! D235  D(80,75,85,24)       -174.5517         estimate D2E/DX2                !
 ! D236  D(80,75,85,68)          1.1419         estimate D2E/DX2                !
 ! D237  D(75,76,77,78)         -1.0682         estimate D2E/DX2                !
 ! D238  D(75,76,77,82)        178.8894         estimate D2E/DX2                !
 ! D239  D(81,76,77,78)        179.2719         estimate D2E/DX2                !
 ! D240  D(81,76,77,82)         -0.7704         estimate D2E/DX2                !
 ! D241  D(76,77,78,79)         -0.6093         estimate D2E/DX2                !
 ! D242  D(76,77,78,83)        179.9116         estimate D2E/DX2                !
 ! D243  D(82,77,78,79)        179.4334         estimate D2E/DX2                !
 ! D244  D(82,77,78,83)         -0.0458         estimate D2E/DX2                !
 ! D245  D(77,78,79,80)          0.9594         estimate D2E/DX2                !
 ! D246  D(77,78,79,84)       -178.8957         estimate D2E/DX2                !
 ! D247  D(83,78,79,80)       -179.5629         estimate D2E/DX2                !
 ! D248  D(83,78,79,84)          0.5821         estimate D2E/DX2                !
 ! D249  D(78,79,80,69)       -178.3733         estimate D2E/DX2                !
 ! D250  D(78,79,80,75)          0.3602         estimate D2E/DX2                !
 ! D251  D(84,79,80,69)          1.4821         estimate D2E/DX2                !
 ! D252  D(84,79,80,75)       -179.7843         estimate D2E/DX2                !
 --------------------------------------------------------------------------------
 Trust Radius=3.00D-01 FncErr=1.00D-07 GrdErr=1.00D-06 EigMax=2.50D+02 EigMin=1.00D-04
 Number of steps in this run=    510 maximum allowed number of steps=    510.
 GradGradGradGradGradGradGradGradGradGradGradGradGradGradGradGradGradGrad

 Leave Link  103 at Tue Nov  5 08:26:26 2024, MaxMem=  2147483648 cpu:               0.3 elap:               0.0
 (Enter /apps/gaussian/g16/l202.exe)
 Stoichiometry    C48H31N3O2S
 Framework group  C1[X(C48H31N3O2S)]
 Deg. of freedom   249
 Full point group                 C1      NOp   1
 Largest Abelian subgroup         C1      NOp   1
 Largest concise Abelian subgroup C1      NOp   1
                         Standard orientation:                         
 ---------------------------------------------------------------------
 Center     Atomic      Atomic             Coordinates (Angstroms)
 Number     Number       Type             X           Y           Z
 ---------------------------------------------------------------------
      1          6           0        1.238414    1.749477    1.085343
      2          6           0        2.542651    0.742013   -0.478214
      3          6           0        0.205405    2.103178    1.950665
      4          6           0        2.514948    2.343224    1.169139
      5          6           0        3.023876   -0.023080   -1.538331
      6          6           0        3.346083    1.701547    0.171801
      7          6           0        0.459963    3.101504    2.885582
      8          1           0       -0.766592    1.627442    1.901546
      9          6           0        2.749591    3.339275    2.119444
     10          6           0        4.350325    0.159893   -1.915877
     11          1           0        2.397378   -0.741651   -2.052742
     12          6           0        4.673359    1.872260   -0.227733
     13          6           0        1.716253    3.719240    2.969032
     14          1           0       -0.334255    3.405526    3.558799
     15          1           0        3.726234    3.805733    2.194896
     16          6           0        5.171337    1.093272   -1.266479
     17          1           0        4.752154   -0.436429   -2.727781
     18          1           0        5.303832    2.605798    0.263747
     19          6           0        0.174654   -0.034569   -0.303417
     20          6           0       -1.023179    0.548178   -0.786074
     21          6           0       -2.091200   -0.260589   -1.172522
     22          6           0       -1.984750   -1.640111   -1.059332
     23          6           0       -0.826045   -2.239660   -0.588710
     24          6           0        0.260876   -1.445249   -0.217774
     25          7           0        1.258103    0.773595    0.080523
     26         16           0       -3.401029   -2.663410   -1.481813
     27          8           0       -4.133907   -1.980450   -2.548375
     28          8           0       -2.915955   -4.035868   -1.632363
     29          1           0        1.883023    4.495708    3.707676
     30          1           0        6.201925    1.211283   -1.583073
     31          1           0       -2.982786    0.195326   -1.586279
     32          1           0       -0.759944   -3.317617   -0.500227
     33          6           0       -4.900957   -3.389600    2.210686
     34          6           0       -4.153747   -3.487961    1.039034
     35          6           0       -4.393719   -2.578008    0.010333
     36          6           0       -5.364136   -1.582750    0.122024
     37          6           0       -6.103550   -1.494754    1.299881
     38          6           0       -5.869148   -2.393134    2.341646
     39          1           0       -4.730171   -4.093055    3.018045
     40          1           0       -3.407996   -4.264349    0.912588
     41          1           0       -5.544942   -0.907769   -0.706616
     42          1           0       -6.866350   -0.730438    1.399876
     43          1           0       -6.447907   -2.321046    3.256277
     44          6           0       -3.852657    4.519394    0.991627
     45          6           0       -4.036578    3.146178    1.210533
     46          6           0       -3.201590    2.199715    0.622797
     47          6           0       -2.173032    2.666331   -0.197115
     48          6           0       -1.966265    4.045334   -0.420641
     49          6           0       -2.819065    4.974503    0.179578
     50          1           0       -4.522197    5.231027    1.462250
     51          1           0       -4.845419    2.809975    1.850898
     52          1           0       -3.348972    1.140545    0.803248
     53          1           0       -2.672223    6.037240    0.017899
     54          6           0       -0.359857    2.851968   -1.551684
     55          6           0        0.709381    2.601173   -2.408898
     56          6           0        1.360415    3.697769   -2.962557
     57          6           0        0.944694    5.009943   -2.688582
     58          6           0       -0.145075    5.249381   -1.859837
     59          6           0       -0.810236    4.162755   -1.285590
     60          1           0        1.030580    1.592618   -2.637099
     61          1           0        2.206436    3.529210   -3.619813
     62          1           0        1.475019    5.843291   -3.136364
     63          1           0       -0.477168    6.263257   -1.662484
     64          7           0       -1.183483    1.945253   -0.875379
     65          6           0        4.033807   -4.728094   -1.628765
     66          6           0        2.876775   -4.370696   -2.336722
     67          6           0        1.935738   -3.498615   -1.796186
     68          6           0        2.183368   -2.993227   -0.519319
     69          6           0        3.345741   -3.336159    0.205324
     70          6           0        4.274427   -4.213641   -0.359243
     71          1           0        4.745960   -5.411795   -2.077708
     72          1           0        2.705944   -4.781954   -3.325873
     73          1           0        1.045889   -3.228234   -2.353609
     74          1           0        5.173052   -4.485003    0.184849
     75          6           0        2.089778   -1.869530    1.452328
     76          6           0        1.690001   -1.108672    2.548976
     77          6           0        2.538779   -1.069863    3.649635
     78          6           0        3.744350   -1.787809    3.668475
     79          6           0        4.118244   -2.572520    2.583707
     80          6           0        3.284624   -2.620664    1.463260
     81          1           0        0.756485   -0.559933    2.550038
     82          1           0        2.258035   -0.469771    4.508350
     83          1           0        4.384779   -1.735047    4.542169
     84          1           0        5.041720   -3.141651    2.605500
     85          7           0        1.430443   -2.086624    0.237491
 ---------------------------------------------------------------------
 Rotational constants (GHZ):           0.0632863           0.0562214           0.0396279
 Leave Link  202 at Tue Nov  5 08:26:26 2024, MaxMem=  2147483648 cpu:               0.1 elap:               0.0
 (Enter /apps/gaussian/g16/l301.exe)
 Standard basis: 6-31G(d,p) (6D, 7F)
 Ernie: Thresh=  0.10000D-02 Tol=  0.10000D-05 Strict=F.
 There are   969 symmetry adapted cartesian basis functions of A   symmetry.
 There are   969 symmetry adapted basis functions of A   symmetry.
   969 basis functions,  1753 primitive gaussians,   969 cartesian basis functions
   186 alpha electrons      186 beta electrons
       nuclear repulsion energy      7506.9767510549 Hartrees.
 IExCor= 4639 DFT=T Ex+Corr=wB97XD ExCW=0 ScaHFX=  1.000000
 ScaDFX=  1.000000  1.000000  1.000000  1.000000 ScalE2=  1.000000  1.000000
 IRadAn=      5 IRanWt=     -1 IRanGd=            0 ICorTp=0 IEmpDi=121
 HFx  wShort=  0.000000 wLong=  0.119500 cFull=  0.222036 cShort=  0.000000 cLong=  0.777964
 DFx  wShort=  0.000000 wLong=  0.119500 cFull=  0.000000 cShort=  0.000000 cLong=  1.000000
 NAtoms=   85 NActive=   85 NUniq=   85 SFac= 1.00D+00 NAtFMM=   60 NAOKFM=T Big=T
 Integral buffers will be    131072 words long.
 Raffenetti 1 integral format.
 Two-electron integral symmetry is turned on.
 R6Disp:  Grimme-D2 Dispersion energy=       -0.0951316714 Hartrees.
 Nuclear repulsion after empirical dispersion term =     7506.8816193835 Hartrees.
 Leave Link  301 at Tue Nov  5 08:26:26 2024, MaxMem=  2147483648 cpu:               0.8 elap:               0.1
 (Enter /apps/gaussian/g16/l302.exe)
 NPDir=0 NMtPBC=     1 NCelOv=     1 NCel=       1 NClECP=     1 NCelD=      1
         NCelK=      1 NCelE2=     1 NClLst=     1 CellRange=     0.0.
 One-electron integrals computed using PRISM.
 One-electron integral symmetry used in STVInt
 NBasis=   969 RedAO= T EigKep=  2.49D-04  NBF=   969
 NBsUse=   969 1.00D-06 EigRej= -1.00D+00 NBFU=   969
 Precomputing XC quadrature grid using
 IXCGrd= 4 IRadAn=           5 IRanWt=          -1 IRanGd=           0 AccXCQ= 0.00D+00.
 Generated NRdTot=       0 NPtTot=           0 NUsed=           0 NTot=          32
 NSgBfM=   956   952   956   956   956 MxSgAt=    85 MxSgA2=    85.
 Leave Link  302 at Tue Nov  5 08:26:28 2024, MaxMem=  2147483648 cpu:              37.9 elap:               2.4
 (Enter /apps/gaussian/g16/l303.exe)
 DipDrv:  MaxL=1.
 Leave Link  303 at Tue Nov  5 08:26:29 2024, MaxMem=  2147483648 cpu:               1.9 elap:               0.2
 (Enter /apps/gaussian/g16/l308.exe)
 Leave Link  308 at Tue Nov  5 08:26:29 2024, MaxMem=  2147483648 cpu:               2.7 elap:               0.2
 (Enter /apps/gaussian/g16/l401.exe)
 ExpMin= 1.17D-01 ExpMax= 2.19D+04 ExpMxC= 3.30D+03 IAcc=3 IRadAn=         5 AccDes= 0.00D+00
 Harris functional with IExCor= 4639 and IRadAn=       5 diagonalized for initial guess.
 HarFok:  IExCor= 4639 AccDes= 0.00D+00 IRadAn=         5 IDoV= 1 UseB2=F ITyADJ=14
 ICtDFT=  3500011 ScaDFX=  1.000000  1.000000  1.000000  1.000000
 FoFCou: FMM=F IPFlag=           0 FMFlag=      100000 FMFlg1=        2001
         NFxFlg=           0 DoJE=T BraDBF=F KetDBF=T FulRan=T
         wScrn=  0.000000 ICntrl=       500 IOpCl=  0 I1Cent=   200000004 NGrid=           0
         NMat0=    1 NMatS0=      1 NMatT0=    0 NMatD0=    1 NMtDS0=    0 NMtDT0=    0
 Petite list used in FoFCou.
 Harris En= -2470.44821177215    
 JPrj=0 DoOrth=F DoCkMO=F.
 Leave Link  401 at Tue Nov  5 08:26:37 2024, MaxMem=  2147483648 cpu:             127.3 elap:               8.0
 (Enter /apps/gaussian/g16/l502.exe)
 Integral symmetry usage will be decided dynamically.
 Closed shell SCF:
 Using DIIS extrapolation, IDIIS=  1040.
 NGot=  2147483648 LenX=  2145578373 LenY=  2144638443
 Requested convergence on RMS density matrix=1.00D-08 within 128 cycles.
 Requested convergence on MAX density matrix=1.00D-06.
 Requested convergence on             energy=1.00D-06.
 No special actions if energy rises.
 Fock matrices will be formed incrementally for  20 cycles.
 Integral accuracy reduced to 1.0D-05 until final iterations.

 Cycle   1  Pass 0  IDiag  1:
 FoFJK:  IHMeth= 1 ICntrl=       0 DoSepK=T KAlg= 0 I1Cent=           0 FoldK=F
 IRaf=         1 NMat=       1 IRICut=       1 DoRegI=T DoRafI=F ISym2E= 0 IDoP0=0 IntGTp=1.
 FoFCou: FMM=T IPFlag=           0 FMFlag=      100000 FMFlg1=        2001
         NFxFlg=           0 DoJE=T BraDBF=F KetDBF=F FulRan=T
         wScrn=  0.000000 ICntrl=       500 IOpCl=  0 I1Cent=           0 NGrid=           0
         NMat0=    1 NMatS0=      1 NMatT0=    0 NMatD0=    1 NMtDS0=    0 NMtDT0=    0
 Symmetry not used in FoFCou.
 FMM levels:  10  Number of levels for PrismC:   9
 E= -2559.44010792352    
 DIIS: error= 6.53D-02 at cycle   1 NSaved=   1.
 NSaved= 1 IEnMin= 1 EnMin= -2559.44010792352     IErMin= 1 ErrMin= 6.53D-02
 ErrMax= 6.53D-02  0.00D+00 EMaxC= 1.00D-01 BMatC= 2.51D+00 BMatP= 2.51D+00
 IDIUse=3 WtCom= 3.47D-01 WtEn= 6.53D-01
 Coeff-Com:  0.100D+01
 Coeff-En:   0.100D+01
 Coeff:      0.100D+01
 Gap=     0.390 Goal=   None    Shift=    0.000
 GapD=    0.390 DampG=1.000 DampE=0.500 DampFc=0.5000 IDamp=-1.
 Damping current iteration by 5.00D-01
 RMSDP=2.48D-03 MaxDP=4.72D-01              OVMax= 2.33D-01

 Cycle   2  Pass 0  IDiag  1:
 RMSU=  1.24D-03    CP:  1.00D+00
 E= -2559.74288543153     Delta-E=       -0.302777508015 Rises=F Damp=T
 DIIS: error= 3.38D-02 at cycle   2 NSaved=   2.
 NSaved= 2 IEnMin= 2 EnMin= -2559.74288543153     IErMin= 2 ErrMin= 3.38D-02
 ErrMax= 3.38D-02  0.00D+00 EMaxC= 1.00D-01 BMatC= 5.36D-01 BMatP= 2.51D+00
 IDIUse=3 WtCom= 6.62D-01 WtEn= 3.38D-01
 Coeff-Com: -0.253D+00 0.125D+01
 Coeff-En:   0.163D+00 0.837D+00
 Coeff:     -0.113D+00 0.111D+01
 Gap=     0.314 Goal=   None    Shift=    0.000
 RMSDP=1.21D-03 MaxDP=9.45D-02 DE=-3.03D-01 OVMax= 2.99D-01

 Cycle   3  Pass 0  IDiag  1:
 RMSU=  1.14D-03    CP:  1.00D+00  6.81D-01
 E= -2559.91466511917     Delta-E=       -0.171779687638 Rises=F Damp=F
 DIIS: error= 1.37D-02 at cycle   3 NSaved=   3.
 NSaved= 3 IEnMin= 3 EnMin= -2559.91466511917     IErMin= 3 ErrMin= 1.37D-02
 ErrMax= 1.37D-02  0.00D+00 EMaxC= 1.00D-01 BMatC= 3.44D-01 BMatP= 5.36D-01
 IDIUse=3 WtCom= 8.63D-01 WtEn= 1.37D-01
 Coeff-Com: -0.304D+00 0.694D+00 0.611D+00
 Coeff-En:   0.000D+00 0.296D+00 0.704D+00
 Coeff:     -0.263D+00 0.639D+00 0.623D+00
 Gap=     0.286 Goal=   None    Shift=    0.000
 RMSDP=9.35D-04 MaxDP=8.38D-02 DE=-1.72D-01 OVMax= 1.34D-01

 Cycle   4  Pass 0  IDiag  1:
 RMSU=  4.52D-04    CP:  9.99D-01  1.14D+00  4.84D-01
 E= -2560.21338149179     Delta-E=       -0.298716372614 Rises=F Damp=F
 DIIS: error= 5.26D-03 at cycle   4 NSaved=   4.
 NSaved= 4 IEnMin= 4 EnMin= -2560.21338149179     IErMin= 4 ErrMin= 5.26D-03
 ErrMax= 5.26D-03  0.00D+00 EMaxC= 1.00D-01 BMatC= 4.10D-02 BMatP= 3.44D-01
 IDIUse=3 WtCom= 9.47D-01 WtEn= 5.26D-02
 Coeff-Com: -0.132D+00 0.279D+00 0.366D+00 0.486D+00
 Coeff-En:   0.000D+00 0.000D+00 0.105D+00 0.895D+00
 Coeff:     -0.125D+00 0.265D+00 0.353D+00 0.508D+00
 Gap=     0.235 Goal=   None    Shift=    0.000
 RMSDP=2.90D-04 MaxDP=3.10D-02 DE=-2.99D-01 OVMax= 4.19D-02

 Cycle   5  Pass 0  IDiag  1:
 RMSU=  1.16D-04    CP:  9.99D-01  1.07D+00  6.40D-01  6.09D-01
 E= -2560.25475271106     Delta-E=       -0.041371219275 Rises=F Damp=F
 DIIS: error= 8.21D-04 at cycle   5 NSaved=   5.
 NSaved= 5 IEnMin= 5 EnMin= -2560.25475271106     IErMin= 5 ErrMin= 8.21D-04
 ErrMax= 8.21D-04  0.00D+00 EMaxC= 1.00D-01 BMatC= 1.47D-03 BMatP= 4.10D-02
 IDIUse=3 WtCom= 9.92D-01 WtEn= 8.21D-03
 Coeff-Com: -0.385D-01 0.789D-01 0.126D+00 0.243D+00 0.591D+00
 Coeff-En:   0.000D+00 0.000D+00 0.000D+00 0.000D+00 0.100D+01
 Coeff:     -0.382D-01 0.783D-01 0.125D+00 0.241D+00 0.594D+00
 Gap=     0.231 Goal=   None    Shift=    0.000
 RMSDP=5.66D-05 MaxDP=4.98D-03 DE=-4.14D-02 OVMax= 8.17D-03

 Cycle   6  Pass 0  IDiag  1:
 RMSU=  4.40D-05    CP:  9.99D-01  1.07D+00  6.34D-01  6.60D-01  7.87D-01
 E= -2560.25598738223     Delta-E=       -0.001234671166 Rises=F Damp=F
 DIIS: error= 4.06D-04 at cycle   6 NSaved=   6.
 NSaved= 6 IEnMin= 6 EnMin= -2560.25598738223     IErMin= 6 ErrMin= 4.06D-04
 ErrMax= 4.06D-04  0.00D+00 EMaxC= 1.00D-01 BMatC= 2.47D-04 BMatP= 1.47D-03
 IDIUse=3 WtCom= 9.96D-01 WtEn= 4.06D-03
 Coeff-Com:  0.120D-01-0.261D-01-0.193D-01 0.846D-02 0.311D+00 0.714D+00
 Coeff-En:   0.000D+00 0.000D+00 0.000D+00 0.000D+00 0.795D-01 0.920D+00
 Coeff:      0.119D-01-0.259D-01-0.192D-01 0.843D-02 0.310D+00 0.715D+00
 Gap=     0.231 Goal=   None    Shift=    0.000
 RMSDP=2.46D-05 MaxDP=2.22D-03 DE=-1.23D-03 OVMax= 3.22D-03

 Cycle   7  Pass 0  IDiag  1:
 RMSU=  1.70D-05    CP:  9.99D-01  1.07D+00  6.39D-01  6.67D-01  8.96D-01
                    CP:  7.92D-01
 E= -2560.25622505713     Delta-E=       -0.000237674900 Rises=F Damp=F
 DIIS: error= 1.10D-04 at cycle   7 NSaved=   7.
 NSaved= 7 IEnMin= 7 EnMin= -2560.25622505713     IErMin= 7 ErrMin= 1.10D-04
 ErrMax= 1.10D-04  0.00D+00 EMaxC= 1.00D-01 BMatC= 2.36D-05 BMatP= 2.47D-04
 IDIUse=3 WtCom= 9.99D-01 WtEn= 1.10D-03
 Coeff-Com:  0.812D-02-0.173D-01-0.160D-01-0.100D-01 0.119D+00 0.368D+00
 Coeff-Com:  0.548D+00
 Coeff-En:   0.000D+00 0.000D+00 0.000D+00 0.000D+00 0.000D+00 0.000D+00
 Coeff-En:   0.100D+01
 Coeff:      0.811D-02-0.173D-01-0.159D-01-0.100D-01 0.119D+00 0.367D+00
 Coeff:      0.549D+00
 Gap=     0.232 Goal=   None    Shift=    0.000
 RMSDP=7.61D-06 MaxDP=1.16D-03 DE=-2.38D-04 OVMax= 6.91D-04

 Cycle   8  Pass 0  IDiag  1:
 RMSU=  6.72D-06    CP:  9.99D-01  1.07D+00  6.40D-01  6.70D-01  8.98D-01
                    CP:  8.42D-01  8.74D-01
 E= -2560.25624371990     Delta-E=       -0.000018662779 Rises=F Damp=F
 DIIS: error= 2.00D-05 at cycle   8 NSaved=   8.
 NSaved= 8 IEnMin= 8 EnMin= -2560.25624371990     IErMin= 8 ErrMin= 2.00D-05
 ErrMax= 2.00D-05  0.00D+00 EMaxC= 1.00D-01 BMatC= 1.62D-06 BMatP= 2.36D-05
 IDIUse=1 WtCom= 1.00D+00 WtEn= 0.00D+00
 Coeff-Com:  0.185D-02-0.379D-02-0.404D-02-0.629D-02-0.176D-02 0.353D-01
 Coeff-Com:  0.200D+00 0.778D+00
 Coeff:      0.185D-02-0.379D-02-0.404D-02-0.629D-02-0.176D-02 0.353D-01
 Coeff:      0.200D+00 0.778D+00
 Gap=     0.232 Goal=   None    Shift=    0.000
 RMSDP=7.07D-06 MaxDP=2.79D-04 DE=-1.87D-05 OVMax= 5.29D-04

 Initial convergence to 1.0D-05 achieved.  Increase integral accuracy.
 Cycle   9  Pass 1  IDiag  1:
 E= -2560.25617682610     Delta-E=        0.000066893806 Rises=F Damp=F
 DIIS: error= 5.19D-04 at cycle   1 NSaved=   1.
 NSaved= 1 IEnMin= 1 EnMin= -2560.25617682610     IErMin= 1 ErrMin= 5.19D-04
 ErrMax= 5.19D-04  0.00D+00 EMaxC= 1.00D-01 BMatC= 6.49D-05 BMatP= 6.49D-05
 IDIUse=3 WtCom= 9.95D-01 WtEn= 5.19D-03
 Coeff-Com:  0.100D+01
 Coeff-En:   0.100D+01
 Coeff:      0.100D+01
 Gap=     0.232 Goal=   None    Shift=    0.000
 RMSDP=7.07D-06 MaxDP=2.79D-04 DE= 6.69D-05 OVMax= 7.92D-04

 Cycle  10  Pass 1  IDiag  1:
 RMSU=  1.65D-04    CP:  1.00D+00
 E= -2560.25623182012     Delta-E=       -0.000054994025 Rises=F Damp=F
 DIIS: error= 1.88D-05 at cycle   2 NSaved=   2.
 NSaved= 2 IEnMin= 2 EnMin= -2560.25623182012     IErMin= 2 ErrMin= 1.88D-05
 ErrMax= 1.88D-05  0.00D+00 EMaxC= 1.00D-01 BMatC= 4.27D-07 BMatP= 6.49D-05
 IDIUse=1 WtCom= 1.00D+00 WtEn= 0.00D+00
 Coeff-Com: -0.268D-01 0.103D+01
 Coeff:     -0.268D-01 0.103D+01
 Gap=     0.232 Goal=   None    Shift=    0.000
 RMSDP=7.86D-06 MaxDP=2.65D-04 DE=-5.50D-05 OVMax= 3.05D-04

 Cycle  11  Pass 1  IDiag  1:
 RMSU=  2.27D-06    CP:  1.00D+00  1.05D+00
 E= -2560.25623159785     Delta-E=        0.000000222273 Rises=F Damp=F
 DIIS: error= 2.19D-05 at cycle   3 NSaved=   3.
[...]
                 (A) (A) (A) (A) (A) (A) (A) (A) (A) (A) (A) (A)
                 (A) (A) (A) (A) (A) (A) (A) (A) (A) (A) (A) (A)
                 (A) (A) (A) (A) (A) (A) (A) (A) (A) (A) (A) (A)
                 (A) (A) (A) (A) (A) (A) (A) (A) (A) (A) (A) (A)
                 (A) (A) (A) (A) (A) (A) (A) (A) (A) (A) (A) (A)
                 (A) (A) (A) (A) (A) (A) (A) (A) (A) (A) (A) (A)
                 (A) (A) (A) (A) (A) (A) (A) (A) (A) (A) (A) (A)
                 (A) (A) (A) (A) (A) (A) (A) (A) (A) (A) (A) (A)
                 (A) (A) (A) (A) (A) (A) (A) (A) (A) (A) (A) (A)
                 (A) (A) (A) (A) (A) (A) (A) (A) (A) (A) (A) (A)
                 (A) (A) (A) (A) (A) (A) (A) (A) (A) (A) (A) (A)
                 (A) (A) (A) (A) (A) (A) (A) (A) (A) (A) (A) (A)
                 (A) (A) (A) (A) (A) (A) (A) (A) (A) (A) (A) (A)
                 (A) (A) (A) (A) (A) (A) (A) (A) (A) (A) (A) (A)
                 (A) (A) (A) (A) (A) (A) (A) (A) (A) (A) (A) (A)
                 (A) (A) (A) (A) (A) (A) (A) (A) (A) (A) (A) (A)
                 (A) (A) (A) (A) (A) (A) (A) (A) (A) (A) (A) (A)
                 (A) (A) (A) (A) (A) (A) (A) (A) (A) (A) (A) (A)
                 (A) (A) (A) (A) (A) (A) (A) (A) (A) (A) (A) (A)
                 (A) (A) (A) (A) (A) (A) (A) (A) (A) (A) (A) (A)
                 (A) (A) (A) (A) (A) (A) (A) (A) (A) (A) (A) (A)
                 (A) (A) (A) (A) (A) (A) (A) (A) (A) (A) (A) (A)
                 (A) (A) (A) (A) (A) (A) (A) (A) (A) (A) (A) (A)
                 (A) (A) (A)
 Generating guess from densities on rwf.
 Convergence on wavefunction:    0.000001000000000
 Davidson Disk Diagonalization:  ConvIn= 1.00D-06 SkipCon=T Conv= 1.00D-06.
 Max sub-space:  2000 roots to seek:     4 dimension of matrix:       200448
 Iteration     1 Dimension     4 NMult     0 NNew      4
 CISAX will form     4 AO SS matrices at one time.
 NMat=     4 NSing=     4 JSym2X= 0.
 FoFJK:  IHMeth= 1 ICntrl=       0 DoSepK=T KAlg= 0 I1Cent=           0 FoldK=F
 IRaf=         1 NMat=       8 IRICut=       1 DoRegI=T DoRafI=F ISym2E= 0 IDoP0=0 IntGTp=1.
 FoFCou: FMM=T IPFlag=           0 FMFlag=      100000 FMFlg1=        2001
         NFxFlg=           0 DoJE=F BraDBF=F KetDBF=F FulRan=T
         wScrn=  0.000000 ICntrl=       500 IOpCl=  0 I1Cent=           0 NGrid=           0
         NMat0=    4 NMatS0=      4 NMatT0=    0 NMatD0=    4 NMtDS0=    0 NMtDT0=    0
 Symmetry not used in FoFCou.
 FMM levels:  10  Number of levels for PrismC:   9
 New state      1 was old state      2
 New state      2 was old state      1
 Excitation Energies [eV] at current iteration:
 Root      1 :     2.537509043159545
 Root      2 :     2.939884752689533
 Root      3 :     3.168553389038649
 Root      4 :     3.260522681177705
 Iteration     2 Dimension     8 NMult     4 NNew      4
 CISAX will form     4 AO SS matrices at one time.
 NMat=     4 NSing=     4 JSym2X= 0.
 Root      1 not converged, maximum delta is    0.083391803904523
 Root      2 not converged, maximum delta is    0.326950581786390
 Root      3 not converged, maximum delta is    0.303142980659594
 Root      4 not converged, maximum delta is    0.126208215112847
 Excitation Energies [eV] at current iteration:
 Root      1 :     2.383820891213619   Change is   -0.153688151945927
 Root      2 :     2.815840451850210   Change is   -0.124044300839323
 Root      3 :     2.907652769062902   Change is   -0.260900619975746
 Root      4 :     3.104741934670957   Change is   -0.155780746506748
 Iteration     3 Dimension    12 NMult     8 NNew      4
 CISAX will form     4 AO SS matrices at one time.
 NMat=     4 NSing=     4 JSym2X= 0.
 Root      1 not converged, maximum delta is    0.003147294105724
 Root      2 not converged, maximum delta is    0.006235258274587
 Root      3 not converged, maximum delta is    0.006520018568092
 Root      4 not converged, maximum delta is    0.003919532340871
 Excitation Energies [eV] at current iteration:
 Root      1 :     2.380113558964441   Change is   -0.003707332249178
 Root      2 :     2.812449716455097   Change is   -0.003390735395113
 Root      3 :     2.904996473246628   Change is   -0.002656295816274
 Root      4 :     3.102824698758102   Change is   -0.001917235912855
 Iteration     4 Dimension    16 NMult    12 NNew      4
 CISAX will form     4 AO SS matrices at one time.
 NMat=     4 NSing=     4 JSym2X= 0.
 Root      1 not converged, maximum delta is    0.002575011854619
 Root      2 not converged, maximum delta is    0.004931799728110
 Root      3 not converged, maximum delta is    0.002754246395987
 Root      4 not converged, maximum delta is    0.004696661344425
 Excitation Energies [eV] at current iteration:
 Root      1 :     2.379388734977589   Change is   -0.000724823986851
 Root      2 :     2.811522876235808   Change is   -0.000926840219289
 Root      3 :     2.904402727737946   Change is   -0.000593745508681
 Root      4 :     3.102282151167697   Change is   -0.000542547590405
 Iteration     5 Dimension    20 NMult    16 NNew      4
 CISAX will form     4 AO SS matrices at one time.
 NMat=     4 NSing=     4 JSym2X= 0.
 Root      1 not converged, maximum delta is    0.001794148031559
 Root      2 not converged, maximum delta is    0.002202173476183
 Root      3 not converged, maximum delta is    0.000788522226155
 Root      4 not converged, maximum delta is    0.010917271179669
 Excitation Energies [eV] at current iteration:
 Root      1 :     2.379303341124227   Change is   -0.000085393853362
 Root      2 :     2.811370436952508   Change is   -0.000152439283300
 Root      3 :     2.904325855669042   Change is   -0.000076872068904
 Root      4 :     3.101906332124355   Change is   -0.000375819043342
 Iteration     6 Dimension    24 NMult    20 NNew      4
 CISAX will form     4 AO SS matrices at one time.
 NMat=     4 NSing=     4 JSym2X= 0.
 Root      1 not converged, maximum delta is    0.000789086301221
 Root      2 not converged, maximum delta is    0.001514727433654
 Root      3 not converged, maximum delta is    0.000624288443704
 Root      4 not converged, maximum delta is    0.011064073245771
 Excitation Energies [eV] at current iteration:
 Root      1 :     2.379287004556173   Change is   -0.000016336568054
 Root      2 :     2.811329951755826   Change is   -0.000040485196681
 Root      3 :     2.904302668144161   Change is   -0.000023187524881
 Root      4 :     3.101635393523665   Change is   -0.000270938600689
 Iteration     7 Dimension    28 NMult    24 NNew      4
 CISAX will form     4 AO SS matrices at one time.
 NMat=     4 NSing=     4 JSym2X= 0.
 Root      1 not converged, maximum delta is    0.000351061410669
 Root      2 not converged, maximum delta is    0.000543300662188
 Root      3 not converged, maximum delta is    0.000554149026522
 Root      4 not converged, maximum delta is    0.006987445931386
 Excitation Energies [eV] at current iteration:
 Root      1 :     2.379284545480596   Change is   -0.000002459075577
 Root      2 :     2.811322119298127   Change is   -0.000007832457699
 Root      3 :     2.904296846176169   Change is   -0.000005821967993
 Root      4 :     3.101495867226163   Change is   -0.000139526297503
 Iteration     8 Dimension    32 NMult    28 NNew      4
 CISAX will form     4 AO SS matrices at one time.
 NMat=     4 NSing=     4 JSym2X= 0.
 Root      1 not converged, maximum delta is    0.000224151696078
 Root      2 not converged, maximum delta is    0.000268648243888
 Root      3 not converged, maximum delta is    0.000303407868853
 Root      4 not converged, maximum delta is    0.001950470351384
 Excitation Energies [eV] at current iteration:
 Root      1 :     2.379283963992246   Change is   -0.000000581488350
 Root      2 :     2.811320376501567   Change is   -0.000001742796560
 Root      3 :     2.904295225493911   Change is   -0.000001620682258
 Root      4 :     3.101465921019830   Change is   -0.000029946206332
 Iteration     9 Dimension    36 NMult    32 NNew      4
 CISAX will form     4 AO SS matrices at one time.
 NMat=     4 NSing=     4 JSym2X= 0.
 Root      1 not converged, maximum delta is    0.000111199086168
 Root      2 not converged, maximum delta is    0.000170576656588
 Root      3 not converged, maximum delta is    0.000173132731546
 Root      4 not converged, maximum delta is    0.001485444227611
 Excitation Energies [eV] at current iteration:
 Root      1 :     2.379283835755980   Change is   -0.000000128236267
 Root      2 :     2.811319952187340   Change is   -0.000000424314226
 Root      3 :     2.904294764579716   Change is   -0.000000460914195
 Root      4 :     3.101453456436814   Change is   -0.000012464583016
 Iteration    10 Dimension    40 NMult    36 NNew      4
 CISAX will form     4 AO SS matrices at one time.
 NMat=     4 NSing=     4 JSym2X= 0.
 Root      1 not converged, maximum delta is    0.000048426766068
 Root      2 not converged, maximum delta is    0.000096196025489
 Root      3 not converged, maximum delta is    0.000130491167540
 Root      4 not converged, maximum delta is    0.001073409081508
 Excitation Energies [eV] at current iteration:
 Root      1 :     2.379283807897775   Change is   -0.000000027858205
 Root      2 :     2.811319844521622   Change is   -0.000000107665718
 Root      3 :     2.904294614537168   Change is   -0.000000150042548
 Root      4 :     3.101449835115619   Change is   -0.000003621321195
 Iteration    11 Dimension    44 NMult    40 NNew      4
 CISAX will form     4 AO SS matrices at one time.
 NMat=     4 NSing=     4 JSym2X= 0.
 Root      1 not converged, maximum delta is    0.000011812374779
 Root      2 not converged, maximum delta is    0.000031008977666
 Root      3 not converged, maximum delta is    0.000054563975135
 Root      4 not converged, maximum delta is    0.000501769263664
 Excitation Energies [eV] at current iteration:
 Root      1 :     2.379283803891823   Change is   -0.000000004005952
 Root      2 :     2.811319821203766   Change is   -0.000000023317856
 Root      3 :     2.904294567056035   Change is   -0.000000047481134
 Root      4 :     3.101448820638993   Change is   -0.000001014476626
 Iteration    12 Dimension    48 NMult    44 NNew      4
 CISAX will form     4 AO SS matrices at one time.
 NMat=     4 NSing=     4 JSym2X= 0.
 Root      1 not converged, maximum delta is    0.000003354027003
 Root      2 not converged, maximum delta is    0.000011360746380
 Root      3 not converged, maximum delta is    0.000019683427439
 Root      4 not converged, maximum delta is    0.000235135366225
 Excitation Energies [eV] at current iteration:
 Root      1 :     2.379283803217647   Change is   -0.000000000674176
 Root      2 :     2.811319816421973   Change is   -0.000000004781793
 Root      3 :     2.904294556172060   Change is   -0.000000010883975
 Root      4 :     3.101448502839064   Change is   -0.000000317799929
 Iteration    13 Dimension    52 NMult    48 NNew      4
 CISAX will form     4 AO SS matrices at one time.
 NMat=     4 NSing=     4 JSym2X= 0.
 Root      1 not converged, maximum delta is    0.000001000428350
 Root      2 not converged, maximum delta is    0.000004216601063
 Root      3 not converged, maximum delta is    0.000006278210741
 Root      4 not converged, maximum delta is    0.000088426254708
 Excitation Energies [eV] at current iteration:
 Root      1 :     2.379283803111644   Change is   -0.000000000106003
 Root      2 :     2.811319815523918   Change is   -0.000000000898056
 Root      3 :     2.904294553756345   Change is   -0.000000002415715
 Root      4 :     3.101448421491227   Change is   -0.000000081347837
 Iteration    14 Dimension    56 NMult    52 NNew      4
 CISAX will form     4 AO SS matrices at one time.
 NMat=     4 NSing=     4 JSym2X= 0.
 Root      1 not converged, maximum delta is    0.000001000298666
 Root      2 not converged, maximum delta is    0.000001243891806
 Root      3 not converged, maximum delta is    0.000002600392184
 Root      4 not converged, maximum delta is    0.000032094019910
 Excitation Energies [eV] at current iteration:
 Root      1 :     2.379283803081409   Change is   -0.000000000030235
 Root      2 :     2.811319815372526   Change is   -0.000000000151392
 Root      3 :     2.904294553260527   Change is   -0.000000000495818
 Root      4 :     3.101448401524083   Change is   -0.000000019967144
 Iteration    15 Dimension    60 NMult    56 NNew      4
 CISAX will form     4 AO SS matrices at one time.
 NMat=     4 NSing=     4 JSym2X= 0.
 Root      1 not converged, maximum delta is    0.000001001025451
 Root      2 not converged, maximum delta is    0.000001000905503
 Root      3 not converged, maximum delta is    0.000001347403646
 Root      4 not converged, maximum delta is    0.000011241738255
 Excitation Energies [eV] at current iteration:
 Root      1 :     2.379283803058497   Change is   -0.000000000022912
 Root      2 :     2.811319815331168   Change is   -0.000000000041358
 Root      3 :     2.904294553153466   Change is   -0.000000000107061
 Root      4 :     3.101448396930509   Change is   -0.000000004593574
 Iteration    16 Dimension    64 NMult    60 NNew      4
 CISAX will form     4 AO SS matrices at one time.
 NMat=     4 NSing=     4 JSym2X= 0.
 Root      1 not converged, maximum delta is    0.000001001496869
 Root      2 not converged, maximum delta is    0.000001013836535
 Root      3 not converged, maximum delta is    0.000001003352687
 Root      4 not converged, maximum delta is    0.000003918329211
 Excitation Energies [eV] at current iteration:
 Root      1 :     2.379283803040630   Change is   -0.000000000017867
 Root      2 :     2.811319815308539   Change is   -0.000000000022628
 Root      3 :     2.904294553121618   Change is   -0.000000000031848
 Root      4 :     3.101448395863140   Change is   -0.000000001067368
 Iteration    17 Dimension    68 NMult    64 NNew      4
 CISAX will form     4 AO SS matrices at one time.
 NMat=     4 NSing=     4 JSym2X= 0.
 Root      1 not converged, maximum delta is    0.000001000274124
 Root      2 not converged, maximum delta is    0.000001004717320
 Root      3 not converged, maximum delta is    0.000001000419058
 Root      4 not converged, maximum delta is    0.000001142939430
 Excitation Energies [eV] at current iteration:
 Root      1 :     2.379283803029815   Change is   -0.000000000010815
 Root      2 :     2.811319815290419   Change is   -0.000000000018120
 Root      3 :     2.904294553103281   Change is   -0.000000000018338
 Root      4 :     3.101448395675737   Change is   -0.000000000187403
 Iteration    18 Dimension    72 NMult    68 NNew      4
 CISAX will form     4 AO SS matrices at one time.
 NMat=     4 NSing=     4 JSym2X= 0.
 Root      1 has converged.
 Root      2 not converged, maximum delta is    0.000001000546530
 Root      3 not converged, maximum delta is    0.000001000118431
 Root      4 not converged, maximum delta is    0.000001016119391
 Excitation Energies [eV] at current iteration:
 Root      1 :     2.379283803023000   Change is   -0.000000000006816
 Root      2 :     2.811319815280015   Change is   -0.000000000010405
 Root      3 :     2.904294553091432   Change is   -0.000000000011849
 Root      4 :     3.101448395642645   Change is   -0.000000000033093
 Iteration    19 Dimension    75 NMult    72 NNew      3
 CISAX will form     3 AO SS matrices at one time.
 NMat=     3 NSing=     3 JSym2X= 0.
 Root      1 has converged.
 Root      2 not converged, maximum delta is    0.000001000275014
 Root      3 not converged, maximum delta is    0.000001000419085
 Root      4 not converged, maximum delta is    0.000001000040066
 Excitation Energies [eV] at current iteration:
 Root      1 :     2.379283803022885   Change is   -0.000000000000115
 Root      2 :     2.811319815273429   Change is   -0.000000000006586
 Root      3 :     2.904294553080973   Change is   -0.000000000010459
 Root      4 :     3.101448395629165   Change is   -0.000000000013480
 Iteration    20 Dimension    78 NMult    75 NNew      3
 CISAX will form     3 AO SS matrices at one time.
 NMat=     3 NSing=     3 JSym2X= 0.
 Root      1 has converged.
 Root      2 not converged, maximum delta is    0.000001003245495
 Root      3 not converged, maximum delta is    0.000001000263572
 Root      4 not converged, maximum delta is    0.000001006889144
 Excitation Energies [eV] at current iteration:
 Root      1 :     2.379283803022812   Change is   -0.000000000000073
 Root      2 :     2.811319815268752   Change is   -0.000000000004677
 Root      3 :     2.904294553072907   Change is   -0.000000000008066
 Root      4 :     3.101448395616289   Change is   -0.000000000012876
 Iteration    21 Dimension    81 NMult    78 NNew      3
 CISAX will form     3 AO SS matrices at one time.
 NMat=     3 NSing=     3 JSym2X= 0.
 Root      1 has converged.
 Root      2 not converged, maximum delta is    0.000001000030159
 Root      3 not converged, maximum delta is    0.000001000266592
 Root      4 not converged, maximum delta is    0.000001006889144
 Excitation Energies [eV] at current iteration:
 Root      1 :     2.379283803022673   Change is   -0.000000000000139
 Root      2 :     2.811319815265091   Change is   -0.000000000003662
 Root      3 :     2.904294553066254   Change is   -0.000000000006652
 Root      4 :     3.101448395603202   Change is   -0.000000000013087
 Iteration    22 Dimension    84 NMult    81 NNew      3
 CISAX will form     3 AO SS matrices at one time.
 NMat=     3 NSing=     3 JSym2X= 0.
 Root      1 has converged.
 Root      2 has converged.
 Root      3 has converged.
 Root      4 not converged, maximum delta is    0.000001002738947
 Excitation Energies [eV] at current iteration:
 Root      1 :     2.379283803022516   Change is   -0.000000000000157
 Root      2 :     2.811319815262287   Change is   -0.000000000002804
 Root      3 :     2.904294553059119   Change is   -0.000000000007136
 Root      4 :     3.101448395595021   Change is   -0.000000000008181
 Iteration    23 Dimension    85 NMult    84 NNew      1
 CISAX will form     1 AO SS matrices at one time.
 NMat=     1 NSing=     1 JSym2X= 0.
 Root      1 has converged.
 Root      2 has converged.
 Root      3 has converged.
 Root      4 not converged, maximum delta is    0.000001000159837
 Excitation Energies [eV] at current iteration:
 Root      1 :     2.379283803022462   Change is   -0.000000000000054
 Root      2 :     2.811319815262215   Change is   -0.000000000000073
 Root      3 :     2.904294553059124   Change is    0.000000000000006
 Root      4 :     3.101448395589129   Change is   -0.000000000005891
 Iteration    24 Dimension    86 NMult    85 NNew      1
 CISAX will form     1 AO SS matrices at one time.
 NMat=     1 NSing=     1 JSym2X= 0.
 Root      1 has converged.
 Root      2 not converged, maximum delta is    0.000001000008447
 Root      3 has converged.
 Root      4 has converged.
 Excitation Energies [eV] at current iteration:
 Root      1 :     2.379283803022468   Change is    0.000000000000006
 Root      2 :     2.811319815262202   Change is   -0.000000000000012
 Root      3 :     2.904294553059094   Change is   -0.000000000000030
 Root      4 :     3.101448395585238   Change is   -0.000000000003891
 Iteration    25 Dimension    87 NMult    86 NNew      1
 CISAX will form     1 AO SS matrices at one time.
 NMat=     1 NSing=     1 JSym2X= 0.
 Root      1 has converged.
 Root      2 not converged, maximum delta is    0.000001000013615
 Root      3 has converged.
 Root      4 has converged.
 Excitation Energies [eV] at current iteration:
 Root      1 :     2.379283803022425   Change is   -0.000000000000042
 Root      2 :     2.811319815259707   Change is   -0.000000000002495
 Root      3 :     2.904294553059034   Change is   -0.000000000000060
 Root      4 :     3.101448395585118   Change is   -0.000000000000121
 Iteration    26 Dimension    88 NMult    87 NNew      1
 CISAX will form     1 AO SS matrices at one time.
 NMat=     1 NSing=     1 JSym2X= 0.
