 Entering Gaussian System, Link 0=g16
 Initial command:
 /apps/gaussian/g16/l1.exe "/local/Gau-379946.inp" -scrdir="/local/"
 Entering Link 1 = /apps/gaussian/g16/l1.exe PID=    379947.
  
 Copyright (c) 1988-2019, Gaussian, Inc.  All Rights Reserved.
  
 This is part of the Gaussian(R) 16 program.  It is based on
 the Gaussian(R) 09 system (copyright 2009, Gaussian, Inc.),
 the Gaussian(R) 03 system (copyright 2003, Gaussian, Inc.),
 the Gaussian(R) 98 system (copyright 1998, Gaussian, Inc.),
 the Gaussian(R) 94 system (copyright 1995, Gaussian, Inc.),
 the Gaussian 92(TM) system (copyright 1992, Gaussian, Inc.),
 the Gaussian 90(TM) system (copyright 1990, Gaussian, Inc.),
 the Gaussian 88(TM) system (copyright 1988, Gaussian, Inc.),
 the Gaussian 86(TM) system (copyright 1986, Carnegie Mellon
 University), and the Gaussian 82(TM) system (copyright 1983,
 Carnegie Mellon University). Gaussian is a federally registered
 trademark of Gaussian, Inc.
  
 This software contains proprietary and confidential information,
 including trade secrets, belonging to Gaussian, Inc.
  
 This software is provided under written license and may be
 used, copied, transmitted, or stored only in accord with that
 written license.
  
 The following legend is applicable only to US Government
 contracts under FAR:
  
                    RESTRICTED RIGHTS LEGEND
  
 Use, reproduction and disclosure by the US Government is
 subject to restrictions as set forth in subparagraphs (a)
 and (c) of the Commercial Computer Software - Restricted
 Rights clause in FAR 52.227-19.
  
 Gaussian, Inc.
 340 Quinnipiac St., Bldg. 40, Wallingford CT 06492
  
  
 ---------------------------------------------------------------
 Warning -- This program may not be used in any manner that
 competes with the business of Gaussian, Inc. or will provide
 assistance to any competitor of Gaussian, Inc.  The licensee
 of this program is prohibited from giving any competitor of
 Gaussian, Inc. access to this program.  By using this program,
 the user acknowledges that Gaussian, Inc. is engaged in the
 business of creating and licensing software in the field of
 computational chemistry and represents and warrants to the
 licensee that it is not a competitor of Gaussian, Inc. and that
 it will not use this program in any manner prohibited above.
 ---------------------------------------------------------------
  

 Cite this work as:
 Gaussian 16, Revision C.01,
 M. J. Frisch, G. W. Trucks, H. B. Schlegel, G. E. Scuseria, 
 M. A. Robb, J. R. Cheeseman, G. Scalmani, V. Barone, 
 G. A. Petersson, H. Nakatsuji, X. Li, M. Caricato, A. V. Marenich, 
 J. Bloino, B. G. Janesko, R. Gomperts, B. Mennucci, H. P. Hratchian, 
 J. V. Ortiz, A. F. Izmaylov, J. L. Sonnenberg, D. Williams-Young, 
 F. Ding, F. Lipparini, F. Egidi, J. Goings, B. Peng, A. Petrone, 
 T. Henderson, D. Ranasinghe, V. G. Zakrzewski, J. Gao, N. Rega, 
 G. Zheng, W. Liang, M. Hada, M. Ehara, K. Toyota, R. Fukuda, 
 J. Hasegawa, M. Ishida, T. Nakajima, Y. Honda, O. Kitao, H. Nakai, 
 T. Vreven, K. Throssell, J. A. Montgomery, Jr., J. E. Peralta, 
 F. Ogliaro, M. J. Bearpark, J. J. Heyd, E. N. Brothers, K. N. Kudin, 
 V. N. Staroverov, T. A. Keith, R. Kobayashi, J. Normand, 
 K. Raghavachari, A. P. Rendell, J. C. Burant, S. S. Iyengar, 
 J. Tomasi, M. Cossi, J. M. Millam, M. Klene, C. Adamo, R. Cammi, 
 J. W. Ochterski, R. L. Martin, K. Morokuma, O. Farkas, 
 J. B. Foresman, and D. J. Fox, Gaussian, Inc., Wallingford CT, 2019.
 
 ******************************************
 Gaussian 16:  ES64L-G16RevC.01  3-Jul-2019
                 5-Nov-2024 
 ******************************************
 %chk=YZ-IX-171.chk
 %nprocshared=16
 Will use up to   16 processors via shared memory.
 %mem=16GB
 ----------------------------------------------------------------------
 #p opt wb97xd/6-31G** iop(3/107=0103900000,3/108=0103900000) TDA=(sing
 lets, nstates=4, root=1)
 ----------------------------------------------------------------------
 1/18=20,19=15,26=3,38=1/1,3;
 2/9=110,12=2,17=6,18=5,40=1/2;
 3/5=1,6=6,7=101,11=9,25=1,30=1,71=1,74=-58,107=103900000,108=103900000/1,2,3,8;
 4//1;
 5/5=2,38=5/2;
 8/6=1,10=2,107=1,108=4/1;
 9/8=1,15=2,41=4,42=1,48=1/14;
 10/5=4,28=1/2;
 6/7=2,8=2,9=2,10=2/1;
 7/12=6,13=5,14=1/1,2,3,16;
 1/18=20,19=15,26=3/3(2);
 2/9=110/2;
 99//99;
 2/9=110/2;
 3/5=1,6=6,7=101,11=9,25=1,30=1,71=1,74=-58,107=103900000,108=103900000/1,2,3,8;
 4/5=5,16=3,69=1/1;
 5/5=2,38=5/2;
 8/6=1,10=2,107=1,108=4/1;
 9/8=1,15=2,41=4,42=1,48=1,49=4/14;
 10/5=4,28=1/2;
 7/12=6,13=5,14=1/1,2,3,16;
 1/18=20,19=15,26=3/3(-8);
 2/9=110/2;
 6/7=2,8=2,9=2,10=2/1;
 99/9=10/99;
 Leave Link    1 at Tue Nov  5 08:12:36 2024, MaxMem=  2147483648 cpu:               0.4 elap:               0.0
 (Enter /apps/gaussian/g16/l101.exe)
 ------------------------------------------------------------
 Tuning input file generated by xtune with parameters: w01039
 ------------------------------------------------------------
 Symbolic Z-matrix:
 Charge =  0 Multiplicity = 1
 C                    -2.30941   0.27702   1.58438 
 C                    -1.09478   2.0857    0.94507 
 C                    -2.76062  -1.00256   1.88248 
 C                    -3.01924   1.41747   2.01171 
 C                    -0.15537   2.95752   0.40424 
 C                    -2.24382   2.57351   1.60369 
 C                    -3.96893  -1.12428   2.5636 
 H                    -2.20591  -1.88603   1.59192 
 C                    -4.22133   1.26499   2.70017 
 C                    -0.37783   4.32717   0.54547 
 H                     0.72766   2.59878  -0.1121 
 C                    -2.43777   3.94727   1.72803 
 C                    -4.72593  -0.01111   2.97559 
 H                    -4.3228   -2.12578   2.77198 
 H                    -4.76259   2.15026   3.01858 
 C                    -1.50604   4.85145   1.20304 
 H                     0.36224   4.99777   0.12661 
 H                    -3.32743   4.30834   2.23418 
 C                    -0.26878  -0.13672   0.18917 
 C                    -0.7224   -1.01997  -0.81956 
 C                     0.20984  -1.81546  -1.49168 
 C                     1.56819  -1.73539  -1.20694 
 C                     2.02964  -0.83697  -0.23414 
 C                     1.10207  -0.05657   0.45057 
 H                    -0.12498  -2.47729  -2.28197 
 C                     4.16001  -1.34918   1.00367 
 C                     4.12391   0.47768  -0.3338 
 C                     3.84682  -2.50601   1.71347 
 C                     5.38959  -0.68592   1.18765 
 C                     3.78109   1.47323  -1.24116 
 C                     5.36982   0.48367   0.32965 
 C                     4.79808  -2.98821   2.60177 
 H                     2.9091   -3.02525   1.56063 
 C                     6.33     -1.20204   2.08681 
 C                     4.71011   2.48467  -1.47594 
 H                     2.83224   1.45731  -1.76534 
 C                     6.27893   1.50878   0.07018 
 C                     6.04912  -2.36154   2.80883 
 H                     4.56093  -3.8932    3.15126 
 H                     7.27187  -0.68215   2.21461 
 C                     5.96504   2.52776  -0.83726 
 H                     4.44072   3.25686  -2.18581 
 H                     7.23488   1.50769   0.5845 
 C                    -6.07189  -0.15335   3.70915 
 C                    -1.74599   6.36439   1.35857 
 N                    -1.14336   0.68384   0.92231 
 N                     3.40649  -0.6563    0.05027 
 C                     6.98641   3.65086  -1.09697 
 C                     7.04207  -2.97719   3.81029 
 S                     2.65142  -2.86123  -2.12542 
 C                     3.89006  -1.80451  -2.86647 
 C                     3.53295  -1.00825  -3.95563 
 C                     5.18205  -1.80609  -2.34652 
 C                     4.49777  -0.18067  -4.52363 
 H                     2.52583  -1.04773  -4.35461 
 C                     6.13733  -0.97381  -2.92613 
 H                     5.41993  -2.43608  -1.49774 
 C                     5.79458  -0.16177  -4.00662 
 H                     4.23876   0.44573  -5.36995 
 H                     7.14332  -0.95268  -2.52434 
 H                     6.5405    0.48851  -4.44985 
 O                     3.30763  -3.74886  -1.1645 
 O                     1.82414  -3.41531  -3.20142 
 H                     1.45446   0.61173   1.2275 
 C                     7.261     4.40763   0.22266 
 H                     7.67106   3.74641   0.991 
 H                     7.9823    5.21557   0.05916 
 H                     6.33974   4.84606   0.61746 
 C                     6.48716   4.66976  -2.13765 
 H                     6.29362   4.19945  -3.10693 
 H                     5.57222   5.17227  -1.80899 
 H                     7.24757   5.44114  -2.29205 
 C                     8.30517   3.03948  -1.62226 
 H                     8.13655   2.49918  -2.55839 
 H                     9.04411   3.82563  -1.81048 
 H                     8.74297   2.33874  -0.90609 
 C                     6.39615  -3.0244    5.21387 
 H                     5.4885   -3.63396   5.22417 
 H                     7.09287  -3.45518   5.94094 
 H                     6.12731  -2.01915   5.55182 
 C                     8.34567  -2.16469   3.91203 
 H                     8.87116  -2.11822   2.95297 
 H                     8.16119  -1.14192   4.25554 
 H                     9.01928  -2.63738   4.63308 
 C                     7.40406  -4.411     3.35999 
 H                     6.52425  -5.05854   3.31596 
 H                     7.86087  -4.40218   2.36595 
 H                     8.11496  -4.86341   4.05973 
 C                    -3.07006   6.74849   0.65957 
 H                    -3.92449   6.21679   1.0874 
 H                    -3.26091   7.82198   0.76348 
 H                    -3.0284    6.51123  -0.40757 
 C                    -1.83471   6.71877   2.86049 
 H                    -1.99954   7.79365   2.99097 
 H                    -2.6581    6.19511   3.35393 
 H                    -0.90976   6.44911   3.37866 
 C                    -0.6162    7.20477   0.73589 
 H                     0.35004   7.00003   1.20731 
 H                    -0.52112   7.02604  -0.33974 
 H                    -0.8305    8.2688    0.87377 
 C                    -7.18222   0.51373   2.86579 
 H                    -8.15315   0.41564   3.36336 
 H                    -6.9918    1.57989   2.71559 
 H                    -7.25244   0.04583   1.87969 
 C                    -5.98559   0.53753   5.08885 
 H                    -5.76283   1.6042    4.99677 
 H                    -6.93626   0.44259   5.62448 
 H                    -5.20093   0.08444   5.70198 
 C                    -6.46386  -1.62497   3.93455 
 H                    -6.57327  -2.16462   2.98931 
 H                    -5.72913  -2.15213   4.55106 
 H                    -7.42505  -1.67378   4.45518 
 N                    -2.08074  -1.12176  -1.17192 
 C                    -2.92909  -0.06066  -1.51061 
 C                    -2.856    -2.28521  -1.0669 
 C                    -2.62547   1.26672  -1.78677 
 C                    -4.25251  -0.53891  -1.6016 
 C                    -2.48027  -3.58172  -0.73151 
 C                    -4.20617  -1.96093  -1.31929 
 C                    -3.67721   2.12406  -2.09981 
 H                    -1.60892   1.63892  -1.75309 
 C                    -5.2836    0.34079  -1.92603 
 C                    -3.47852  -4.55332  -0.6658 
 H                    -1.44855  -3.84244  -0.52434 
 C                    -5.18019  -2.95428  -1.24562 
 C                    -5.01574   1.69332  -2.16716 
 H                    -3.43226   3.16069  -2.29261 
 H                    -6.29922  -0.03728  -1.98682 
 C                    -4.83396  -4.2713   -0.91965 
 H                    -3.17696  -5.56136  -0.40971 
 H                    -6.21513  -2.69101  -1.43993 
 C                    -6.17662   2.65109  -2.49163 
 C                    -5.93124  -5.34925  -0.8491 
 C                    -5.696     4.09282  -2.738 
 C                    -6.90942   2.16563  -3.76268 
 C                    -7.16403   2.67267  -1.30264 
 C                    -5.36873  -6.73645  -0.48912 
 C                    -6.96715  -4.95769   0.22921 
 C                    -6.63297  -5.45817  -2.22204 
 H                    -5.19505   4.50903  -1.85899 
 H                    -5.00976   4.15321  -3.58847 
 H                    -6.5544    4.73327  -2.96233 
 H                    -6.2274    2.13731  -4.61765 
 H                    -7.32519   1.1624   -3.63455 
 H                    -7.73792   2.83889  -4.00774 
 H                    -6.66179   3.00349  -0.38906 
 H                    -7.99493   3.35695  -1.50597 
 H                    -7.58762   1.68329  -1.10999 
 H                    -4.64595  -7.08764  -1.23194 
 H                    -4.88407  -6.7374    0.49221 
 H                    -6.18373  -7.46558  -0.45305 
 H                    -7.43969  -3.99638   0.00893 
 H                    -7.75977  -5.71108   0.29077 
 H                    -6.49327  -4.88051   1.21222 
 H                    -7.10557  -4.51596  -2.51301 
 H                    -5.91689  -5.7277   -3.00387 
 H                    -7.41353  -6.22596  -2.19296 
 
 ITRead=  0  0  0  0  0  0  0  0  0  0  0  0  0  0  0  0  0  0  0  0
 ITRead=  0  0  0  0  0  0  0  0  0  0  0  0  0  0  0  0  0  0  0  0
 ITRead=  0  0  0  0  0  0  0  0  0  0  0  0  0  0  0  0  0  0  0  0
 ITRead=  0  0  0  0  0  0  0  0  0  0  0  0  0  0  0  0  0  0  0  0
 ITRead=  0  0  0  0  0  0  0  0  0  0  0  0  0  0  0  0  0  0  0  0
 ITRead=  0  0  0  0  0  0  0  0  0  0  0  0  0  0  0  0  0  0  0  0
 ITRead=  0  0  0  0  0  0  0  0  0  0  0  0  0  0  0  0  0  0  0  0
 ITRead=  0  0  0  0  0  0  0  0  0  0  0  0  0  0  0  0  0
 MicOpt= -1 -1 -1 -1 -1 -1 -1 -1 -1 -1 -1 -1 -1 -1 -1 -1 -1 -1 -1 -1
 MicOpt= -1 -1 -1 -1 -1 -1 -1 -1 -1 -1 -1 -1 -1 -1 -1 -1 -1 -1 -1 -1
 MicOpt= -1 -1 -1 -1 -1 -1 -1 -1 -1 -1 -1 -1 -1 -1 -1 -1 -1 -1 -1 -1
 MicOpt= -1 -1 -1 -1 -1 -1 -1 -1 -1 -1 -1 -1 -1 -1 -1 -1 -1 -1 -1 -1
 MicOpt= -1 -1 -1 -1 -1 -1 -1 -1 -1 -1 -1 -1 -1 -1 -1 -1 -1 -1 -1 -1
 MicOpt= -1 -1 -1 -1 -1 -1 -1 -1 -1 -1 -1 -1 -1 -1 -1 -1 -1 -1 -1 -1
 MicOpt= -1 -1 -1 -1 -1 -1 -1 -1 -1 -1 -1 -1 -1 -1 -1 -1 -1 -1 -1 -1
 MicOpt= -1 -1 -1 -1 -1 -1 -1 -1 -1 -1 -1 -1 -1 -1 -1 -1 -1
 NAtoms=    157 NQM=      157 NQMF=       0 NMMI=      0 NMMIF=      0
                NMic=       0 NMicF=      0.
                    Isotopes and Nuclear Properties:
 (Nuclear quadrupole moments (NQMom) in fm**2, nuclear magnetic moments (NMagM)
  in nuclear magnetons)

  Atom         1           2           3           4           5           6           7           8           9          10
 IAtWgt=          12          12          12          12          12          12          12           1          12          12
 AtmWgt=  12.0000000  12.0000000  12.0000000  12.0000000  12.0000000  12.0000000  12.0000000   1.0078250  12.0000000  12.0000000
 NucSpn=           0           0           0           0           0           0           0           1           0           0
 AtZEff=  -0.0000000  -0.0000000  -0.0000000  -0.0000000  -0.0000000  -0.0000000  -0.0000000  -0.0000000  -0.0000000  -0.0000000
 NQMom=    0.0000000   0.0000000   0.0000000   0.0000000   0.0000000   0.0000000   0.0000000   0.0000000   0.0000000   0.0000000
 NMagM=    0.0000000   0.0000000   0.0000000   0.0000000   0.0000000   0.0000000   0.0000000   2.7928460   0.0000000   0.0000000
 AtZNuc=   6.0000000   6.0000000   6.0000000   6.0000000   6.0000000   6.0000000   6.0000000   1.0000000   6.0000000   6.0000000

  Atom        11          12          13          14          15          16          17          18          19          20
 IAtWgt=           1          12          12           1           1          12           1           1          12          12
 AtmWgt=   1.0078250  12.0000000  12.0000000   1.0078250   1.0078250  12.0000000   1.0078250   1.0078250  12.0000000  12.0000000
 NucSpn=           1           0           0           1           1           0           1           1           0           0
 AtZEff=  -0.0000000  -0.0000000  -0.0000000  -0.0000000  -0.0000000  -0.0000000  -0.0000000  -0.0000000  -0.0000000  -0.0000000
 NQMom=    0.0000000   0.0000000   0.0000000   0.0000000   0.0000000   0.0000000   0.0000000   0.0000000   0.0000000   0.0000000
 NMagM=    2.7928460   0.0000000   0.0000000   2.7928460   2.7928460   0.0000000   2.7928460   2.7928460   0.0000000   0.0000000
 AtZNuc=   1.0000000   6.0000000   6.0000000   1.0000000   1.0000000   6.0000000   1.0000000   1.0000000   6.0000000   6.0000000

  Atom        21          22          23          24          25          26          27          28          29          30
 IAtWgt=          12          12          12          12           1          12          12          12          12          12
 AtmWgt=  12.0000000  12.0000000  12.0000000  12.0000000   1.0078250  12.0000000  12.0000000  12.0000000  12.0000000  12.0000000
 NucSpn=           0           0           0           0           1           0           0           0           0           0
 AtZEff=  -0.0000000  -0.0000000  -0.0000000  -0.0000000  -0.0000000  -0.0000000  -0.0000000  -0.0000000  -0.0000000  -0.0000000
 NQMom=    0.0000000   0.0000000   0.0000000   0.0000000   0.0000000   0.0000000   0.0000000   0.0000000   0.0000000   0.0000000
 NMagM=    0.0000000   0.0000000   0.0000000   0.0000000   2.7928460   0.0000000   0.0000000   0.0000000   0.0000000   0.0000000
 AtZNuc=   6.0000000   6.0000000   6.0000000   6.0000000   1.0000000   6.0000000   6.0000000   6.0000000   6.0000000   6.0000000

  Atom        31          32          33          34          35          36          37          38          39          40
 IAtWgt=          12          12           1          12          12           1          12          12           1           1
 AtmWgt=  12.0000000  12.0000000   1.0078250  12.0000000  12.0000000   1.0078250  12.0000000  12.0000000   1.0078250   1.0078250
 NucSpn=           0           0           1           0           0           1           0           0           1           1
 AtZEff=  -0.0000000  -0.0000000  -0.0000000  -0.0000000  -0.0000000  -0.0000000  -0.0000000  -0.0000000  -0.0000000  -0.0000000
 NQMom=    0.0000000   0.0000000   0.0000000   0.0000000   0.0000000   0.0000000   0.0000000   0.0000000   0.0000000   0.0000000
 NMagM=    0.0000000   0.0000000   2.7928460   0.0000000   0.0000000   2.7928460   0.0000000   0.0000000   2.7928460   2.7928460
 AtZNuc=   6.0000000   6.0000000   1.0000000   6.0000000   6.0000000   1.0000000   6.0000000   6.0000000   1.0000000   1.0000000

  Atom        41          42          43          44          45          46          47          48          49          50
 IAtWgt=          12           1           1          12          12          14          14          12          12          32
 AtmWgt=  12.0000000   1.0078250   1.0078250  12.0000000  12.0000000  14.0030740  14.0030740  12.0000000  12.0000000  31.9720718
 NucSpn=           0           1           1           0           0           2           2           0           0           0
 AtZEff=  -0.0000000  -0.0000000  -0.0000000  -0.0000000  -0.0000000  -0.0000000  -0.0000000  -0.0000000  -0.0000000  -0.0000000
 NQMom=    0.0000000   0.0000000   0.0000000   0.0000000   0.0000000   2.0440000   2.0440000   0.0000000   0.0000000   0.0000000
 NMagM=    0.0000000   2.7928460   2.7928460   0.0000000   0.0000000   0.4037610   0.4037610   0.0000000   0.0000000   0.0000000
 AtZNuc=   6.0000000   1.0000000   1.0000000   6.0000000   6.0000000   7.0000000   7.0000000   6.0000000   6.0000000  16.0000000

  Atom        51          52          53          54          55          56          57          58          59          60
 IAtWgt=          12          12          12          12           1          12           1          12           1           1
 AtmWgt=  12.0000000  12.0000000  12.0000000  12.0000000   1.0078250  12.0000000   1.0078250  12.0000000   1.0078250   1.0078250
 NucSpn=           0           0           0           0           1           0           1           0           1           1
 AtZEff=  -0.0000000  -0.0000000  -0.0000000  -0.0000000  -0.0000000  -0.0000000  -0.0000000  -0.0000000  -0.0000000  -0.0000000
 NQMom=    0.0000000   0.0000000   0.0000000   0.0000000   0.0000000   0.0000000   0.0000000   0.0000000   0.0000000   0.0000000
 NMagM=    0.0000000   0.0000000   0.0000000   0.0000000   2.7928460   0.0000000   2.7928460   0.0000000   2.7928460   2.7928460
 AtZNuc=   6.0000000   6.0000000   6.0000000   6.0000000   1.0000000   6.0000000   1.0000000   6.0000000   1.0000000   1.0000000

  Atom        61          62          63          64          65          66          67          68          69          70
 IAtWgt=           1          16          16           1          12           1           1           1          12           1
 AtmWgt=   1.0078250  15.9949146  15.9949146   1.0078250  12.0000000   1.0078250   1.0078250   1.0078250  12.0000000   1.0078250
 NucSpn=           1           0           0           1           0           1           1           1           0           1
 AtZEff=  -0.0000000  -0.0000000  -0.0000000  -0.0000000  -0.0000000  -0.0000000  -0.0000000  -0.0000000  -0.0000000  -0.0000000
 NQMom=    0.0000000   0.0000000   0.0000000   0.0000000   0.0000000   0.0000000   0.0000000   0.0000000   0.0000000   0.0000000
 NMagM=    2.7928460   0.0000000   0.0000000   2.7928460   0.0000000   2.7928460   2.7928460   2.7928460   0.0000000   2.7928460
 AtZNuc=   1.0000000   8.0000000   8.0000000   1.0000000   6.0000000   1.0000000   1.0000000   1.0000000   6.0000000   1.0000000

  Atom        71          72          73          74          75          76          77          78          79          80
 IAtWgt=           1           1          12           1           1           1          12           1           1           1
 AtmWgt=   1.0078250   1.0078250  12.0000000   1.0078250   1.0078250   1.0078250  12.0000000   1.0078250   1.0078250   1.0078250
 NucSpn=           1           1           0           1           1           1           0           1           1           1
 AtZEff=  -0.0000000  -0.0000000  -0.0000000  -0.0000000  -0.0000000  -0.0000000  -0.0000000  -0.0000000  -0.0000000  -0.0000000
 NQMom=    0.0000000   0.0000000   0.0000000   0.0000000   0.0000000   0.0000000   0.0000000   0.0000000   0.0000000   0.0000000
 NMagM=    2.7928460   2.7928460   0.0000000   2.7928460   2.7928460   2.7928460   0.0000000   2.7928460   2.7928460   2.7928460
 AtZNuc=   1.0000000   1.0000000   6.0000000   1.0000000   1.0000000   1.0000000   6.0000000   1.0000000   1.0000000   1.0000000

  Atom        81          82          83          84          85          86          87          88          89          90
 IAtWgt=          12           1           1           1          12           1           1           1          12           1
 AtmWgt=  12.0000000   1.0078250   1.0078250   1.0078250  12.0000000   1.0078250   1.0078250   1.0078250  12.0000000   1.0078250
 NucSpn=           0           1           1           1           0           1           1           1           0           1
 AtZEff=  -0.0000000  -0.0000000  -0.0000000  -0.0000000  -0.0000000  -0.0000000  -0.0000000  -0.0000000  -0.0000000  -0.0000000
 NQMom=    0.0000000   0.0000000   0.0000000   0.0000000   0.0000000   0.0000000   0.0000000   0.0000000   0.0000000   0.0000000
 NMagM=    0.0000000   2.7928460   2.7928460   2.7928460   0.0000000   2.7928460   2.7928460   2.7928460   0.0000000   2.7928460
 AtZNuc=   6.0000000   1.0000000   1.0000000   1.0000000   6.0000000   1.0000000   1.0000000   1.0000000   6.0000000   1.0000000

  Atom        91          92          93          94          95          96          97          98          99         100
 IAtWgt=           1           1          12           1           1           1          12           1           1           1
 AtmWgt=   1.0078250   1.0078250  12.0000000   1.0078250   1.0078250   1.0078250  12.0000000   1.0078250   1.0078250   1.0078250
 NucSpn=           1           1           0           1           1           1           0           1           1           1
 AtZEff=  -0.0000000  -0.0000000  -0.0000000  -0.0000000  -0.0000000  -0.0000000  -0.0000000  -0.0000000  -0.0000000  -0.0000000
 NQMom=    0.0000000   0.0000000   0.0000000   0.0000000   0.0000000   0.0000000   0.0000000   0.0000000   0.0000000   0.0000000
 NMagM=    2.7928460   2.7928460   0.0000000   2.7928460   2.7928460   2.7928460   0.0000000   2.7928460   2.7928460   2.7928460
 AtZNuc=   1.0000000   1.0000000   6.0000000   1.0000000   1.0000000   1.0000000   6.0000000   1.0000000   1.0000000   1.0000000

  Atom       101         102         103         104         105         106         107         108         109         110
 IAtWgt=          12           1           1           1          12           1           1           1          12           1
 AtmWgt=  12.0000000   1.0078250   1.0078250   1.0078250  12.0000000   1.0078250   1.0078250   1.0078250  12.0000000   1.0078250
 NucSpn=           0           1           1           1           0           1           1           1           0           1
 AtZEff=  -0.0000000  -0.0000000  -0.0000000  -0.0000000  -0.0000000  -0.0000000  -0.0000000  -0.0000000  -0.0000000  -0.0000000
 NQMom=    0.0000000   0.0000000   0.0000000   0.0000000   0.0000000   0.0000000   0.0000000   0.0000000   0.0000000   0.0000000
 NMagM=    0.0000000   2.7928460   2.7928460   2.7928460   0.0000000   2.7928460   2.7928460   2.7928460   0.0000000   2.7928460
 AtZNuc=   6.0000000   1.0000000   1.0000000   1.0000000   6.0000000   1.0000000   1.0000000   1.0000000   6.0000000   1.0000000

  Atom       111         112         113         114         115         116         117         118         119         120
 IAtWgt=           1           1          14          12          12          12          12          12          12          12
 AtmWgt=   1.0078250   1.0078250  14.0030740  12.0000000  12.0000000  12.0000000  12.0000000  12.0000000  12.0000000  12.0000000
 NucSpn=           1           1           2           0           0           0           0           0           0           0
 AtZEff=  -0.0000000  -0.0000000  -0.0000000  -0.0000000  -0.0000000  -0.0000000  -0.0000000  -0.0000000  -0.0000000  -0.0000000
 NQMom=    0.0000000   0.0000000   2.0440000   0.0000000   0.0000000   0.0000000   0.0000000   0.0000000   0.0000000   0.0000000
 NMagM=    2.7928460   2.7928460   0.4037610   0.0000000   0.0000000   0.0000000   0.0000000   0.0000000   0.0000000   0.0000000
 AtZNuc=   1.0000000   1.0000000   7.0000000   6.0000000   6.0000000   6.0000000   6.0000000   6.0000000   6.0000000   6.0000000

  Atom       121         122         123         124         125         126         127         128         129         130
 IAtWgt=           1          12          12           1          12          12           1           1          12           1
 AtmWgt=   1.0078250  12.0000000  12.0000000   1.0078250  12.0000000  12.0000000   1.0078250   1.0078250  12.0000000   1.0078250
 NucSpn=           1           0           0           1           0           0           1           1           0           1
 AtZEff=  -0.0000000  -0.0000000  -0.0000000  -0.0000000  -0.0000000  -0.0000000  -0.0000000  -0.0000000  -0.0000000  -0.0000000
 NQMom=    0.0000000   0.0000000   0.0000000   0.0000000   0.0000000   0.0000000   0.0000000   0.0000000   0.0000000   0.0000000
 NMagM=    2.7928460   0.0000000   0.0000000   2.7928460   0.0000000   0.0000000   2.7928460   2.7928460   0.0000000   2.7928460
 AtZNuc=   1.0000000   6.0000000   6.0000000   1.0000000   6.0000000   6.0000000   1.0000000   1.0000000   6.0000000   1.0000000

  Atom       131         132         133         134         135         136         137         138         139         140
 IAtWgt=           1          12          12          12          12          12          12          12          12           1
 AtmWgt=   1.0078250  12.0000000  12.0000000  12.0000000  12.0000000  12.0000000  12.0000000  12.0000000  12.0000000   1.0078250
 NucSpn=           1           0           0           0           0           0           0           0           0           1
 AtZEff=  -0.0000000  -0.0000000  -0.0000000  -0.0000000  -0.0000000  -0.0000000  -0.0000000  -0.0000000  -0.0000000  -0.0000000
 NQMom=    0.0000000   0.0000000   0.0000000   0.0000000   0.0000000   0.0000000   0.0000000   0.0000000   0.0000000   0.0000000
 NMagM=    2.7928460   0.0000000   0.0000000   0.0000000   0.0000000   0.0000000   0.0000000   0.0000000   0.0000000   2.7928460
 AtZNuc=   1.0000000   6.0000000   6.0000000   6.0000000   6.0000000   6.0000000   6.0000000   6.0000000   6.0000000   1.0000000

  Atom       141         142         143         144         145         146         147         148         149         150
 IAtWgt=           1           1           1           1           1           1           1           1           1           1
 AtmWgt=   1.0078250   1.0078250   1.0078250   1.0078250   1.0078250   1.0078250   1.0078250   1.0078250   1.0078250   1.0078250
 NucSpn=           1           1           1           1           1           1           1           1           1           1
 AtZEff=  -0.0000000  -0.0000000  -0.0000000  -0.0000000  -0.0000000  -0.0000000  -0.0000000  -0.0000000  -0.0000000  -0.0000000
 NQMom=    0.0000000   0.0000000   0.0000000   0.0000000   0.0000000   0.0000000   0.0000000   0.0000000   0.0000000   0.0000000
 NMagM=    2.7928460   2.7928460   2.7928460   2.7928460   2.7928460   2.7928460   2.7928460   2.7928460   2.7928460   2.7928460
 AtZNuc=   1.0000000   1.0000000   1.0000000   1.0000000   1.0000000   1.0000000   1.0000000   1.0000000   1.0000000   1.0000000

  Atom       151         152         153         154         155         156         157
 IAtWgt=           1           1           1           1           1           1           1
 AtmWgt=   1.0078250   1.0078250   1.0078250   1.0078250   1.0078250   1.0078250   1.0078250
 NucSpn=           1           1           1           1           1           1           1
 AtZEff=  -0.0000000  -0.0000000  -0.0000000  -0.0000000  -0.0000000  -0.0000000  -0.0000000
 NQMom=    0.0000000   0.0000000   0.0000000   0.0000000   0.0000000   0.0000000   0.0000000
 NMagM=    2.7928460   2.7928460   2.7928460   2.7928460   2.7928460   2.7928460   2.7928460
 AtZNuc=   1.0000000   1.0000000   1.0000000   1.0000000   1.0000000   1.0000000   1.0000000
 Leave Link  101 at Tue Nov  5 08:12:36 2024, MaxMem=  2147483648 cpu:               5.8 elap:               0.4
 (Enter /apps/gaussian/g16/l103.exe)

 GradGradGradGradGradGradGradGradGradGradGradGradGradGradGradGradGradGrad
 Berny optimization.
 Initialization pass.
                           ----------------------------
                           !    Initial Parameters    !
                           ! (Angstroms and Degrees)  !
 --------------------------                            --------------------------
 ! Name  Definition              Value          Derivative Info.                !
 --------------------------------------------------------------------------------
 ! R1    R(1,3)                  1.3892         estimate D2E/DX2                !
 ! R2    R(1,4)                  1.4096         estimate D2E/DX2                !
 ! R3    R(1,46)                 1.4013         estimate D2E/DX2                !
 ! R4    R(2,5)                  1.3911         estimate D2E/DX2                !
 ! R5    R(2,6)                  1.4114         estimate D2E/DX2                !
 ! R6    R(2,46)                 1.4029         estimate D2E/DX2                !
 ! R7    R(3,7)                  1.3924         estimate D2E/DX2                !
 ! R8    R(3,8)                  1.0829         estimate D2E/DX2                !
 ! R9    R(4,6)                  1.4506         estimate D2E/DX2                !
 ! R10   R(4,9)                  1.3936         estimate D2E/DX2                !
 ! R11   R(5,10)                 1.3948         estimate D2E/DX2                !
 ! R12   R(5,11)                 1.084          estimate D2E/DX2                !
 ! R13   R(6,12)                 1.3929         estimate D2E/DX2                !
 ! R14   R(7,13)                 1.4078         estimate D2E/DX2                !
 ! R15   R(7,14)                 1.0824         estimate D2E/DX2                !
 ! R16   R(9,13)                 1.3996         estimate D2E/DX2                !
 ! R17   R(9,15)                 1.0854         estimate D2E/DX2                !
 ! R18   R(10,16)                1.4072         estimate D2E/DX2                !
 ! R19   R(10,17)                1.083          estimate D2E/DX2                !
 ! R20   R(12,16)                1.4004         estimate D2E/DX2                !
 ! R21   R(12,18)                1.0854         estimate D2E/DX2                !
 ! R22   R(13,44)                1.5395         estimate D2E/DX2                !
 ! R23   R(16,45)                1.5397         estimate D2E/DX2                !
 ! R24   R(19,20)                1.4154         estimate D2E/DX2                !
 ! R25   R(19,24)                1.3979         estimate D2E/DX2                !
 ! R26   R(19,46)                1.4056         estimate D2E/DX2                !
 ! R27   R(20,21)                1.3977         estimate D2E/DX2                !
 ! R28   R(20,113)               1.407          estimate D2E/DX2                !
 ! R29   R(21,22)                1.3902         estimate D2E/DX2                !
 ! R30   R(21,25)                1.0838         estimate D2E/DX2                !
 ! R31   R(22,23)                1.4023         estimate D2E/DX2                !
 ! R32   R(22,50)                1.8123         estimate D2E/DX2                !
 ! R33   R(23,24)                1.3922         estimate D2E/DX2                !
 ! R34   R(23,47)                1.4175         estimate D2E/DX2                !
 ! R35   R(24,64)                1.0837         estimate D2E/DX2                !
 ! R36   R(26,28)                1.3929         estimate D2E/DX2                !
 ! R37   R(26,29)                1.4091         estimate D2E/DX2                !
 ! R38   R(26,47)                1.3989         estimate D2E/DX2                !
 ! R39   R(27,30)                1.3899         estimate D2E/DX2                !
 ! R40   R(27,31)                1.4116         estimate D2E/DX2                !
 ! R41   R(27,47)                1.3957         estimate D2E/DX2                !
 ! R42   R(28,32)                1.388          estimate D2E/DX2                !
 ! R43   R(28,33)                1.0827         estimate D2E/DX2                !
 ! R44   R(29,31)                1.4507         estimate D2E/DX2                !
 ! R45   R(29,34)                1.3997         estimate D2E/DX2                !
 ! R46   R(30,35)                1.3933         estimate D2E/DX2                !
 ! R47   R(30,36)                1.0841         estimate D2E/DX2                !
 ! R48   R(31,37)                1.3945         estimate D2E/DX2                !
 ! R49   R(32,38)                1.4145         estimate D2E/DX2                !
 ! R50   R(32,39)                1.085          estimate D2E/DX2                !
 ! R51   R(34,38)                1.3945         estimate D2E/DX2                !
 ! R52   R(34,40)                1.0834         estimate D2E/DX2                !
 ! R53   R(35,41)                1.4088         estimate D2E/DX2                !
 ! R54   R(35,42)                1.0829         estimate D2E/DX2                !
 ! R55   R(37,41)                1.4001         estimate D2E/DX2                !
 ! R56   R(37,43)                1.0855         estimate D2E/DX2                !
 ! R57   R(38,49)                1.5388         estimate D2E/DX2                !
 ! R58   R(41,48)                1.5401         estimate D2E/DX2                !
 ! R59   R(44,101)               1.5457         estimate D2E/DX2                !
 ! R60   R(44,105)               1.5454         estimate D2E/DX2                !
 ! R61   R(44,109)               1.5395         estimate D2E/DX2                !
 ! R62   R(45,89)                1.5457         estimate D2E/DX2                !
 ! R63   R(45,93)                1.5457         estimate D2E/DX2                !
 ! R64   R(45,97)                1.5396         estimate D2E/DX2                !
 ! R65   R(48,65)                1.5458         estimate D2E/DX2                !
 ! R66   R(48,69)                1.5396         estimate D2E/DX2                !
 ! R67   R(48,73)                1.5456         estimate D2E/DX2                !
 ! R68   R(49,77)                1.5458         estimate D2E/DX2                !
 ! R69   R(49,81)                1.5394         estimate D2E/DX2                !
 ! R70   R(49,85)                1.5458         estimate D2E/DX2                !
 ! R71   R(50,51)                1.7889         estimate D2E/DX2                !
 ! R72   R(50,62)                1.4635         estimate D2E/DX2                !
 ! R73   R(50,63)                1.466          estimate D2E/DX2                !
 ! R74   R(51,52)                1.3956         estimate D2E/DX2                !
 ! R75   R(51,53)                1.3927         estimate D2E/DX2                !
 ! R76   R(52,54)                1.3923         estimate D2E/DX2                !
 ! R77   R(52,55)                1.084          estimate D2E/DX2                !
 ! R78   R(53,56)                1.3933         estimate D2E/DX2                !
 ! R79   R(53,57)                1.0835         estimate D2E/DX2                !
 ! R80   R(54,58)                1.3962         estimate D2E/DX2                !
 ! R81   R(54,59)                1.0843         estimate D2E/DX2                !
 ! R82   R(56,58)                1.3944         estimate D2E/DX2                !
 ! R83   R(56,60)                1.0835         estimate D2E/DX2                !
 ! R84   R(58,61)                1.0843         estimate D2E/DX2                !
 ! R85   R(65,66)                1.0935         estimate D2E/DX2                !
 ! R86   R(65,67)                1.0953         estimate D2E/DX2                !
 ! R87   R(65,68)                1.094          estimate D2E/DX2                !
 ! R88   R(69,70)                1.0946         estimate D2E/DX2                !
 ! R89   R(69,71)                1.0944         estimate D2E/DX2                !
 ! R90   R(69,72)                1.0941         estimate D2E/DX2                !
 ! R91   R(73,74)                1.0939         estimate D2E/DX2                !
 ! R92   R(73,75)                1.0952         estimate D2E/DX2                !
 ! R93   R(73,76)                1.0934         estimate D2E/DX2                !
 ! R94   R(77,78)                1.0934         estimate D2E/DX2                !
 ! R95   R(77,79)                1.0953         estimate D2E/DX2                !
 ! R96   R(77,80)                1.0941         estimate D2E/DX2                !
 ! R97   R(81,82)                1.0946         estimate D2E/DX2                !
 ! R98   R(81,83)                1.0946         estimate D2E/DX2                !
 ! R99   R(81,84)                1.0941         estimate D2E/DX2                !
 ! R100  R(85,86)                1.0933         estimate D2E/DX2                !
 ! R101  R(85,87)                1.094          estimate D2E/DX2                !
 ! R102  R(85,88)                1.0953         estimate D2E/DX2                !
 ! R103  R(89,90)                1.0935         estimate D2E/DX2                !
 ! R104  R(89,91)                1.0953         estimate D2E/DX2                !
 ! R105  R(89,92)                1.094          estimate D2E/DX2                !
 ! R106  R(93,94)                1.0952         estimate D2E/DX2                !
 ! R107  R(93,95)                1.0935         estimate D2E/DX2                !
 ! R108  R(93,96)                1.094          estimate D2E/DX2                !
 ! R109  R(97,98)                1.0944         estimate D2E/DX2                !
 ! R110  R(97,99)                1.0945         estimate D2E/DX2                !
 ! R111  R(97,100)               1.0941         estimate D2E/DX2                !
 ! R112  R(101,102)              1.0954         estimate D2E/DX2                !
 ! R113  R(101,103)              1.0934         estimate D2E/DX2                !
 ! R114  R(101,104)              1.0937         estimate D2E/DX2                !
 ! R115  R(105,106)              1.0936         estimate D2E/DX2                !
 ! R116  R(105,107)              1.0953         estimate D2E/DX2                !
 ! R117  R(105,108)              1.094          estimate D2E/DX2                !
 ! R118  R(109,110)              1.0939         estimate D2E/DX2                !
 ! R119  R(109,111)              1.0944         estimate D2E/DX2                !
 ! R120  R(109,112)              1.0942         estimate D2E/DX2                !
 ! R121  R(113,114)              1.4001         estimate D2E/DX2                !
 ! R122  R(113,115)              1.402          estimate D2E/DX2                !
 ! R123  R(114,116)              1.3894         estimate D2E/DX2                !
 ! R124  R(114,117)              1.4101         estimate D2E/DX2                !
 ! R125  R(115,118)              1.3909         estimate D2E/DX2                !
 ! R126  R(115,119)              1.4113         estimate D2E/DX2                !
 ! R127  R(116,120)              1.3926         estimate D2E/DX2                !
 ! R128  R(116,121)              1.0831         estimate D2E/DX2                !
 ! R129  R(117,119)              1.4505         estimate D2E/DX2                !
 ! R130  R(117,122)              1.3937         estimate D2E/DX2                !
 ! R131  R(118,123)              1.3946         estimate D2E/DX2                !
 ! R132  R(118,124)              1.0841         estimate D2E/DX2                !
 ! R133  R(119,125)              1.3932         estimate D2E/DX2                !
 ! R134  R(120,126)              1.4077         estimate D2E/DX2                !
 ! R135  R(120,127)              1.0825         estimate D2E/DX2                !
 ! R136  R(122,126)              1.3997         estimate D2E/DX2                !
 ! R137  R(122,128)              1.0854         estimate D2E/DX2                !
 ! R138  R(123,129)              1.4075         estimate D2E/DX2                !
 ! R139  R(123,130)              1.0829         estimate D2E/DX2                !
 ! R140  R(125,129)              1.4002         estimate D2E/DX2                !
 ! R141  R(125,131)              1.0854         estimate D2E/DX2                !
 ! R142  R(126,132)              1.5396         estimate D2E/DX2                !
 ! R143  R(129,133)              1.5398         estimate D2E/DX2                !
 ! R144  R(132,134)              1.5396         estimate D2E/DX2                !
 ! R145  R(132,135)              1.5454         estimate D2E/DX2                !
 ! R146  R(132,136)              1.5457         estimate D2E/DX2                !
 ! R147  R(133,137)              1.5396         estimate D2E/DX2                !
 ! R148  R(133,138)              1.5457         estimate D2E/DX2                !
 ! R149  R(133,139)              1.5457         estimate D2E/DX2                !
 ! R150  R(134,140)              1.094          estimate D2E/DX2                !
 ! R151  R(134,141)              1.0945         estimate D2E/DX2                !
 ! R152  R(134,142)              1.0942         estimate D2E/DX2                !
 ! R153  R(135,143)              1.094          estimate D2E/DX2                !
 ! R154  R(135,144)              1.0935         estimate D2E/DX2                !
 ! R155  R(135,145)              1.0953         estimate D2E/DX2                !
 ! R156  R(136,146)              1.0938         estimate D2E/DX2                !
 ! R157  R(136,147)              1.0954         estimate D2E/DX2                !
 ! R158  R(136,148)              1.0934         estimate D2E/DX2                !
 ! R159  R(137,149)              1.0943         estimate D2E/DX2                !
 ! R160  R(137,150)              1.0945         estimate D2E/DX2                !
 ! R161  R(137,151)              1.0942         estimate D2E/DX2                !
 ! R162  R(138,152)              1.0936         estimate D2E/DX2                !
 ! R163  R(138,153)              1.0953         estimate D2E/DX2                !
 ! R164  R(138,154)              1.094          estimate D2E/DX2                !
 ! R165  R(139,155)              1.0935         estimate D2E/DX2                !
 ! R166  R(139,156)              1.0939         estimate D2E/DX2                !
 ! R167  R(139,157)              1.0953         estimate D2E/DX2                !
 ! A1    A(3,1,4)              121.105          estimate D2E/DX2                !
 ! A2    A(3,1,46)             129.7245         estimate D2E/DX2                !
 ! A3    A(4,1,46)             109.1098         estimate D2E/DX2                !
 ! A4    A(5,2,6)              120.9708         estimate D2E/DX2                !
 ! A5    A(5,2,46)             130.0419         estimate D2E/DX2                !
 ! A6    A(6,2,46)             108.9505         estimate D2E/DX2                !
 ! A7    A(1,3,7)              117.8627         estimate D2E/DX2                !
 ! A8    A(1,3,8)              121.8391         estimate D2E/DX2                !
 ! A9    A(7,3,8)              120.2954         estimate D2E/DX2                !
 ! A10   A(1,4,6)              106.8766         estimate D2E/DX2                !
 ! A11   A(1,4,9)              119.7081         estimate D2E/DX2                !
 ! A12   A(6,4,9)              133.4111         estimate D2E/DX2                !
 ! A13   A(2,5,10)             117.9281         estimate D2E/DX2                !
 ! A14   A(2,5,11)             121.8636         estimate D2E/DX2                !
 ! A15   A(10,5,11)            120.2083         estimate D2E/DX2                !
 ! A16   A(2,6,4)              106.9182         estimate D2E/DX2                !
 ! A17   A(2,6,12)             119.7274         estimate D2E/DX2                !
 ! A18   A(4,6,12)             133.3486         estimate D2E/DX2                !
 ! A19   A(3,7,13)             122.7283         estimate D2E/DX2                !
 ! A20   A(3,7,14)             117.3069         estimate D2E/DX2                !
 ! A21   A(13,7,14)            119.9646         estimate D2E/DX2                !
 ! A22   A(4,9,13)             120.5266         estimate D2E/DX2                !
 ! A23   A(4,9,15)             119.0669         estimate D2E/DX2                !
 ! A24   A(13,9,15)            120.4064         estimate D2E/DX2                !
 ! A25   A(5,10,16)            122.756          estimate D2E/DX2                !
 ! A26   A(5,10,17)            117.3807         estimate D2E/DX2                !
 ! A27   A(16,10,17)           119.8631         estimate D2E/DX2                !
 ! A28   A(6,12,16)            120.7067         estimate D2E/DX2                !
 ! A29   A(6,12,18)            118.9366         estimate D2E/DX2                !
 ! A30   A(16,12,18)           120.3557         estimate D2E/DX2                !
 ! A31   A(7,13,9)             118.0009         estimate D2E/DX2                !
 ! A32   A(7,13,44)            122.4466         estimate D2E/DX2                !
 ! A33   A(9,13,44)            119.5525         estimate D2E/DX2                !
 ! A34   A(10,16,12)           117.9075         estimate D2E/DX2                !
 ! A35   A(10,16,45)           122.5641         estimate D2E/DX2                !
 ! A36   A(12,16,45)           119.5283         estimate D2E/DX2                !
 ! A37   A(20,19,24)           118.9037         estimate D2E/DX2                !
 ! A38   A(20,19,46)           122.4524         estimate D2E/DX2                !
 ! A39   A(24,19,46)           118.6323         estimate D2E/DX2                !
 ! A40   A(19,20,21)           118.9536         estimate D2E/DX2                !
 ! A41   A(19,20,113)          122.2099         estimate D2E/DX2                !
 ! A42   A(21,20,113)          118.8362         estimate D2E/DX2                !
 ! A43   A(20,21,22)           121.3605         estimate D2E/DX2                !
 ! A44   A(20,21,25)           119.4805         estimate D2E/DX2                !
 ! A45   A(22,21,25)           119.1027         estimate D2E/DX2                !
 ! A46   A(21,22,23)           120.0348         estimate D2E/DX2                !
 ! A47   A(21,22,50)           116.3871         estimate D2E/DX2                !
 ! A48   A(23,22,50)           123.5653         estimate D2E/DX2                !
 ! A49   A(22,23,24)           118.7551         estimate D2E/DX2                !
 ! A50   A(22,23,47)           122.7168         estimate D2E/DX2                !
 ! A51   A(24,23,47)           118.4921         estimate D2E/DX2                !
 ! A52   A(19,24,23)           121.957          estimate D2E/DX2                !
 ! A53   A(19,24,64)           119.2294         estimate D2E/DX2                !
 ! A54   A(23,24,64)           118.7916         estimate D2E/DX2                !
 ! A55   A(28,26,29)           121.3715         estimate D2E/DX2                !
 ! A56   A(28,26,47)           129.6097         estimate D2E/DX2                !
 ! A57   A(29,26,47)           109.0188         estimate D2E/DX2                !
 ! A58   A(30,27,31)           121.4318         estimate D2E/DX2                !
 ! A59   A(30,27,47)           129.4036         estimate D2E/DX2                !
 ! A60   A(31,27,47)           109.1353         estimate D2E/DX2                !
 ! A61   A(26,28,32)           117.423          estimate D2E/DX2                !
 ! A62   A(26,28,33)           121.4054         estimate D2E/DX2                !
 ! A63   A(32,28,33)           121.1524         estimate D2E/DX2                !
 ! A64   A(26,29,31)           106.8805         estimate D2E/DX2                !
 ! A65   A(26,29,34)           119.773          estimate D2E/DX2                !
 ! A66   A(31,29,34)           133.343          estimate D2E/DX2                !
 ! A67   A(27,30,35)           117.743          estimate D2E/DX2                !
 ! A68   A(27,30,36)           121.398          estimate D2E/DX2                !
 ! A69   A(35,30,36)           120.8486         estimate D2E/DX2                !
 ! A70   A(27,31,29)           106.6537         estimate D2E/DX2                !
 ! A71   A(27,31,37)           119.412          estimate D2E/DX2                !
 ! A72   A(29,31,37)           133.9341         estimate D2E/DX2                !
 ! A73   A(28,32,38)           123.0896         estimate D2E/DX2                !
 ! A74   A(28,32,39)           117.6516         estimate D2E/DX2                !
 ! A75   A(38,32,39)           119.2572         estimate D2E/DX2                !
 ! A76   A(29,34,38)           120.2558         estimate D2E/DX2                !
 ! A77   A(29,34,40)           118.8764         estimate D2E/DX2                !
 ! A78   A(38,34,40)           120.8666         estimate D2E/DX2                !
 ! A79   A(30,35,41)           122.6686         estimate D2E/DX2                !
 ! A80   A(30,35,42)           117.5307         estimate D2E/DX2                !
 ! A81   A(41,35,42)           119.7997         estimate D2E/DX2                !
 ! A82   A(31,37,41)           120.6262         estimate D2E/DX2                !
 ! A83   A(31,37,43)           119.0259         estimate D2E/DX2                !
 ! A84   A(41,37,43)           120.3478         estimate D2E/DX2                !
 ! A85   A(32,38,34)           118.0822         estimate D2E/DX2                !
 ! A86   A(32,38,49)           119.2583         estimate D2E/DX2                !
 ! A87   A(34,38,49)           122.6595         estimate D2E/DX2                !
 ! A88   A(35,41,37)           118.1182         estimate D2E/DX2                !
 ! A89   A(35,41,48)           122.453          estimate D2E/DX2                !
 ! A90   A(37,41,48)           119.4279         estimate D2E/DX2                !
 ! A91   A(13,44,101)          109.1588         estimate D2E/DX2                !
 ! A92   A(13,44,105)          109.5895         estimate D2E/DX2                !
 ! A93   A(13,44,109)          112.3762         estimate D2E/DX2                !
 ! A94   A(101,44,105)         109.5296         estimate D2E/DX2                !
 ! A95   A(101,44,109)         108.0312         estimate D2E/DX2                !
 ! A96   A(105,44,109)         108.1101         estimate D2E/DX2                !
 ! A97   A(16,45,89)           109.3891         estimate D2E/DX2                !
 ! A98   A(16,45,93)           109.4131         estimate D2E/DX2                !
 ! A99   A(16,45,97)           112.404          estimate D2E/DX2                !
 ! A100  A(89,45,93)           109.467          estimate D2E/DX2                !
 ! A101  A(89,45,97)           108.0624         estimate D2E/DX2                !
 ! A102  A(93,45,97)           108.0565         estimate D2E/DX2                !
 ! A103  A(1,46,2)             108.1354         estimate D2E/DX2                !
 ! A104  A(1,46,19)            126.4929         estimate D2E/DX2                !
 ! A105  A(2,46,19)            124.7694         estimate D2E/DX2                !
 ! A106  A(23,47,26)           126.6442         estimate D2E/DX2                !
 ! A107  A(23,47,27)           123.2033         estimate D2E/DX2                !
 ! A108  A(26,47,27)           108.2452         estimate D2E/DX2                !
 ! A109  A(41,48,65)           109.3209         estimate D2E/DX2                !
 ! A110  A(41,48,69)           112.4279         estimate D2E/DX2                !
 ! A111  A(41,48,73)           109.5541         estimate D2E/DX2                !
 ! A112  A(65,48,69)           108.0984         estimate D2E/DX2                !
 ! A113  A(65,48,73)           109.404          estimate D2E/DX2                !
 ! A114  A(69,48,73)           107.9828         estimate D2E/DX2                !
 ! A115  A(38,49,77)           109.4824         estimate D2E/DX2                !
 ! A116  A(38,49,81)           112.2271         estimate D2E/DX2                !
 ! A117  A(38,49,85)           109.4275         estimate D2E/DX2                !
 ! A118  A(77,49,81)           108.0564         estimate D2E/DX2                !
 ! A119  A(77,49,85)           109.5126         estimate D2E/DX2                !
 ! A120  A(81,49,85)           108.0892         estimate D2E/DX2                !
 ! A121  A(22,50,51)           104.8828         estimate D2E/DX2                !
 ! A122  A(22,50,62)           108.181          estimate D2E/DX2                !
 ! A123  A(22,50,63)           105.6329         estimate D2E/DX2                !
 ! A124  A(51,50,62)           108.6511         estimate D2E/DX2                !
 ! A125  A(51,50,63)           108.056          estimate D2E/DX2                !
 ! A126  A(62,50,63)           120.378          estimate D2E/DX2                !
 ! A127  A(50,51,52)           118.8907         estimate D2E/DX2                !
 ! A128  A(50,51,53)           119.1447         estimate D2E/DX2                !
 ! A129  A(52,51,53)           121.9634         estimate D2E/DX2                !
 ! A130  A(51,52,54)           118.6982         estimate D2E/DX2                !
 ! A131  A(51,52,55)           120.2775         estimate D2E/DX2                !
 ! A132  A(54,52,55)           121.0196         estimate D2E/DX2                !
 ! A133  A(51,53,56)           118.6899         estimate D2E/DX2                !
 ! A134  A(51,53,57)           119.7898         estimate D2E/DX2                !
 ! A135  A(56,53,57)           121.5132         estimate D2E/DX2                !
 ! A136  A(52,54,58)           120.0418         estimate D2E/DX2                !
 ! A137  A(52,54,59)           119.755          estimate D2E/DX2                !
 ! A138  A(58,54,59)           120.2029         estimate D2E/DX2                !
 ! A139  A(53,56,58)           120.1124         estimate D2E/DX2                !
 ! A140  A(53,56,60)           119.6032         estimate D2E/DX2                !
 ! A141  A(58,56,60)           120.28           estimate D2E/DX2                !
 ! A142  A(54,58,56)           120.4881         estimate D2E/DX2                !
 ! A143  A(54,58,61)           119.7162         estimate D2E/DX2                !
 ! A144  A(56,58,61)           119.7957         estimate D2E/DX2                !
 ! A145  A(48,65,66)           111.7416         estimate D2E/DX2                !
 ! A146  A(48,65,67)           110.5279         estimate D2E/DX2                !
 ! A147  A(48,65,68)           110.7742         estimate D2E/DX2                !
 ! A148  A(66,65,67)           107.6961         estimate D2E/DX2                !
 ! A149  A(66,65,68)           107.7311         estimate D2E/DX2                !
 ! A150  A(67,65,68)           108.2285         estimate D2E/DX2                !
 ! A151  A(48,69,70)           111.8102         estimate D2E/DX2                !
 ! A152  A(48,69,71)           111.8379         estimate D2E/DX2                !
 ! A153  A(48,69,72)           109.6691         estimate D2E/DX2                !
 ! A154  A(70,69,71)           108.3853         estimate D2E/DX2                !
 ! A155  A(70,69,72)           107.5087         estimate D2E/DX2                !
 ! A156  A(71,69,72)           107.4399         estimate D2E/DX2                !
 ! A157  A(48,73,74)           110.7749         estimate D2E/DX2                !
 ! A158  A(48,73,75)           110.496          estimate D2E/DX2                !
 ! A159  A(48,73,76)           111.8712         estimate D2E/DX2                !
 ! A160  A(74,73,75)           108.1478         estimate D2E/DX2                !
 ! A161  A(74,73,76)           107.799          estimate D2E/DX2                !
 ! A162  A(75,73,76)           107.6039         estimate D2E/DX2                !
 ! A163  A(49,77,78)           111.8669         estimate D2E/DX2                !
 ! A164  A(49,77,79)           110.4238         estimate D2E/DX2                !
 ! A165  A(49,77,80)           110.7984         estimate D2E/DX2                !
 ! A166  A(78,77,79)           107.6103         estimate D2E/DX2                !
 ! A167  A(78,77,80)           107.7789         estimate D2E/DX2                !
 ! A168  A(79,77,80)           108.218          estimate D2E/DX2                !
 ! A169  A(49,81,82)           111.7795         estimate D2E/DX2                !
 ! A170  A(49,81,83)           111.7884         estimate D2E/DX2                !
 ! A171  A(49,81,84)           109.6869         estimate D2E/DX2                !
 ! A172  A(82,81,83)           108.4345         estimate D2E/DX2                !
 ! A173  A(82,81,84)           107.4696         estimate D2E/DX2                !
 ! A174  A(83,81,84)           107.496          estimate D2E/DX2                !
 ! A175  A(49,85,86)           111.8787         estimate D2E/DX2                !
 ! A176  A(49,85,87)           110.792          estimate D2E/DX2                !
 ! A177  A(49,85,88)           110.4258         estimate D2E/DX2                !
 ! A178  A(86,85,87)           107.7104         estimate D2E/DX2                !
 ! A179  A(86,85,88)           107.6619         estimate D2E/DX2                !
 ! A180  A(87,85,88)           108.2276         estimate D2E/DX2                !
 ! A181  A(45,89,90)           111.8115         estimate D2E/DX2                !
 ! A182  A(45,89,91)           110.4818         estimate D2E/DX2                !
 ! A183  A(45,89,92)           110.7692         estimate D2E/DX2                !
 ! A184  A(90,89,91)           107.6557         estimate D2E/DX2                !
 ! A185  A(90,89,92)           107.8148         estimate D2E/DX2                !
 ! A186  A(91,89,92)           108.1642         estimate D2E/DX2                !
 ! A187  A(45,93,94)           110.4506         estimate D2E/DX2                !
 ! A188  A(45,93,95)           111.8326         estimate D2E/DX2                !
 ! A189  A(45,93,96)           110.8053         estimate D2E/DX2                !
 ! A190  A(94,93,95)           107.6329         estimate D2E/DX2                !
 ! A191  A(94,93,96)           108.224          estimate D2E/DX2                !
 ! A192  A(95,93,96)           107.7511         estimate D2E/DX2                !
 ! A193  A(45,97,98)           111.8107         estimate D2E/DX2                !
 ! A194  A(45,97,99)           111.8434         estimate D2E/DX2                !
 ! A195  A(45,97,100)          109.6416         estimate D2E/DX2                !
 ! A196  A(98,97,99)           108.4256         estimate D2E/DX2                !
 ! A197  A(98,97,100)          107.4918         estimate D2E/DX2                !
 ! A198  A(99,97,100)          107.4374         estimate D2E/DX2                !
 ! A199  A(44,101,102)         110.5017         estimate D2E/DX2                !
 ! A200  A(44,101,103)         111.7572         estimate D2E/DX2                !
 ! A201  A(44,101,104)         110.6962         estimate D2E/DX2                !
 ! A202  A(102,101,103)        107.7038         estimate D2E/DX2                !
 ! A203  A(102,101,104)        108.3195         estimate D2E/DX2                !
 ! A204  A(103,101,104)        107.7264         estimate D2E/DX2                !
 ! A205  A(44,105,106)         111.8547         estimate D2E/DX2                !
 ! A206  A(44,105,107)         110.4482         estimate D2E/DX2                !
 ! A207  A(44,105,108)         110.8081         estimate D2E/DX2                !
 ! A208  A(106,105,107)        107.6097         estimate D2E/DX2                !
 ! A209  A(106,105,108)        107.7618         estimate D2E/DX2                !
 ! A210  A(107,105,108)        108.2126         estimate D2E/DX2                !
 ! A211  A(44,109,110)         111.7472         estimate D2E/DX2                !
 ! A212  A(44,109,111)         111.8372         estimate D2E/DX2                !
 ! A213  A(44,109,112)         109.6302         estimate D2E/DX2                !
 ! A214  A(110,109,111)        108.438          estimate D2E/DX2                !
 ! A215  A(110,109,112)        107.5342         estimate D2E/DX2                !
 ! A216  A(111,109,112)        107.4697         estimate D2E/DX2                !
 ! A217  A(20,113,114)         126.2077         estimate D2E/DX2                !
 ! A218  A(20,113,115)         125.1076         estimate D2E/DX2                !
 ! A219  A(114,113,115)        108.1787         estimate D2E/DX2                !
 ! A220  A(113,114,116)        129.77           estimate D2E/DX2                !
 ! A221  A(113,114,117)        109.1007         estimate D2E/DX2                !
 ! A222  A(116,114,117)        121.0841         estimate D2E/DX2                !
 ! A223  A(113,115,118)        129.9573         estimate D2E/DX2                !
 ! A224  A(113,115,119)        108.9613         estimate D2E/DX2                !
 ! A225  A(118,115,119)        121.0461         estimate D2E/DX2                !
 ! A226  A(114,116,120)        117.8926         estimate D2E/DX2                !
 ! A227  A(114,116,121)        121.8201         estimate D2E/DX2                !
 ! A228  A(120,116,121)        120.2842         estimate D2E/DX2                !
 ! A229  A(114,117,119)        106.855          estimate D2E/DX2                !
 ! A230  A(114,117,122)        119.6889         estimate D2E/DX2                !
 ! A231  A(119,117,122)        133.4537         estimate D2E/DX2                !
 ! A232  A(115,118,123)        117.8668         estimate D2E/DX2                !
 ! A233  A(115,118,124)        121.8244         estimate D2E/DX2                !
 ! A234  A(123,118,124)        120.3088         estimate D2E/DX2                !
 ! A235  A(115,119,117)        106.8956         estimate D2E/DX2                !
 ! A236  A(115,119,125)        119.7075         estimate D2E/DX2                !
 ! A237  A(117,119,125)        133.3903         estimate D2E/DX2                !
 ! A238  A(116,120,126)        122.7184         estimate D2E/DX2                !
 ! A239  A(116,120,127)        117.3043         estimate D2E/DX2                !
 ! A240  A(126,120,127)        119.977          estimate D2E/DX2                !
 ! A241  A(117,122,126)        120.5614         estimate D2E/DX2                !
 ! A242  A(117,122,128)        119.0418         estimate D2E/DX2                !
 ! A243  A(126,122,128)        120.3966         estimate D2E/DX2                !
 ! A244  A(118,123,129)        122.767          estimate D2E/DX2                !
 ! A245  A(118,123,130)        117.4092         estimate D2E/DX2                !
 ! A246  A(129,123,130)        119.8236         estimate D2E/DX2                !
 ! A247  A(119,125,129)        120.6689         estimate D2E/DX2                !
 ! A248  A(119,125,131)        118.9612         estimate D2E/DX2                !
 ! A249  A(129,125,131)        120.3692         estimate D2E/DX2                !
 ! A250  A(120,126,122)        117.9936         estimate D2E/DX2                !
 ! A251  A(120,126,132)        122.459          estimate D2E/DX2                !
 ! A252  A(122,126,132)        119.5473         estimate D2E/DX2                !
 ! A253  A(123,129,125)        117.9403         estimate D2E/DX2                !
 ! A254  A(123,129,133)        122.527          estimate D2E/DX2                !
 ! A255  A(125,129,133)        119.5326         estimate D2E/DX2                !
 ! A256  A(126,132,134)        112.3896         estimate D2E/DX2                !
 ! A257  A(126,132,135)        109.6009         estimate D2E/DX2                !
 ! A258  A(126,132,136)        109.1628         estimate D2E/DX2                !
 ! A259  A(134,132,135)        108.0947         estimate D2E/DX2                !
 ! A260  A(134,132,136)        108.0259         estimate D2E/DX2                !
 ! A261  A(135,132,136)        109.5205         estimate D2E/DX2                !
 ! A262  A(129,133,137)        112.403          estimate D2E/DX2                !
 ! A263  A(129,133,138)        109.4027         estimate D2E/DX2                !
 ! A264  A(129,133,139)        109.399          estimate D2E/DX2                !
 ! A265  A(137,133,138)        108.0591         estimate D2E/DX2                !
 ! A266  A(137,133,139)        108.063          estimate D2E/DX2                !
 ! A267  A(138,133,139)        109.4653         estimate D2E/DX2                !
 ! A268  A(132,134,140)        111.7556         estimate D2E/DX2                !
 ! A269  A(132,134,141)        111.8241         estimate D2E/DX2                !
 ! A270  A(132,134,142)        109.6338         estimate D2E/DX2                !
 ! A271  A(140,134,141)        108.4365         estimate D2E/DX2                !
 ! A272  A(140,134,142)        107.5337         estimate D2E/DX2                !
 ! A273  A(141,134,142)        107.4731         estimate D2E/DX2                !
 ! A274  A(132,135,143)        110.8101         estimate D2E/DX2                !
 ! A275  A(132,135,144)        111.8466         estimate D2E/DX2                !
 ! A276  A(132,135,145)        110.4624         estimate D2E/DX2                !
 ! A277  A(143,135,144)        107.749          estimate D2E/DX2                !
 ! A278  A(143,135,145)        108.2159         estimate D2E/DX2                !
 ! A279  A(144,135,145)        107.6109         estimate D2E/DX2                !
 ! A280  A(132,136,146)        110.6955         estimate D2E/DX2                !
 ! A281  A(132,136,147)        110.5172         estimate D2E/DX2                !
 ! A282  A(132,136,148)        111.7408         estimate D2E/DX2                !
 ! A283  A(146,136,147)        108.3246         estimate D2E/DX2                !
 ! A284  A(146,136,148)        107.7232         estimate D2E/DX2                !
 ! A285  A(147,136,148)        107.7038         estimate D2E/DX2                !
 ! A286  A(133,137,149)        111.8241         estimate D2E/DX2                !
 ! A287  A(133,137,150)        111.8524         estimate D2E/DX2                !
 ! A288  A(133,137,151)        109.6325         estimate D2E/DX2                !
 ! A289  A(149,137,150)        108.4137         estimate D2E/DX2                !
 ! A290  A(149,137,151)        107.487          estimate D2E/DX2                !
 ! A291  A(150,137,151)        107.4399         estimate D2E/DX2                !
 ! A292  A(133,138,152)        111.8235         estimate D2E/DX2                !
 ! A293  A(133,138,153)        110.485          estimate D2E/DX2                !
 ! A294  A(133,138,154)        110.758          estimate D2E/DX2                !
 ! A295  A(152,138,153)        107.6541         estimate D2E/DX2                !
 ! A296  A(152,138,154)        107.8272         estimate D2E/DX2                !
 ! A297  A(153,138,154)        108.1491         estimate D2E/DX2                !
 ! A298  A(133,139,155)        111.8288         estimate D2E/DX2                !
 ! A299  A(133,139,156)        110.7934         estimate D2E/DX2                !
 ! A300  A(133,139,157)        110.4472         estimate D2E/DX2                !
 ! A301  A(155,139,156)        107.76           estimate D2E/DX2                !
 ! A302  A(155,139,157)        107.6423         estimate D2E/DX2                !
 ! A303  A(156,139,157)        108.226          estimate D2E/DX2                !
 ! D1    D(4,1,3,7)              2.9063         estimate D2E/DX2                !
 ! D2    D(4,1,3,8)           -177.7002         estimate D2E/DX2                !
 ! D3    D(46,1,3,7)           179.7458         estimate D2E/DX2                !
 ! D4    D(46,1,3,8)            -0.8606         estimate D2E/DX2                !
 ! D5    D(3,1,4,6)            176.8282         estimate D2E/DX2                !
 ! D6    D(3,1,4,9)             -2.5211         estimate D2E/DX2                !
 ! D7    D(46,1,4,6)            -0.5997         estimate D2E/DX2                !
 ! D8    D(46,1,4,9)          -179.949          estimate D2E/DX2                !
 ! D9    D(3,1,46,2)          -176.1636         estimate D2E/DX2                !
 ! D10   D(3,1,46,19)           12.4432         estimate D2E/DX2                !
 ! D11   D(4,1,46,2)             0.9729         estimate D2E/DX2                !
 ! D12   D(4,1,46,19)         -170.4204         estimate D2E/DX2                !
 ! D13   D(6,2,5,10)             0.6491         estimate D2E/DX2                !
 ! D14   D(6,2,5,11)          -179.4516         estimate D2E/DX2                !
 ! D15   D(46,2,5,10)          178.1841         estimate D2E/DX2                !
 ! D16   D(46,2,5,11)           -1.9166         estimate D2E/DX2                !
 ! D17   D(5,2,6,4)            178.5958         estimate D2E/DX2                !
 ! D18   D(5,2,6,12)            -0.6398         estimate D2E/DX2                !
 ! D19   D(46,2,6,4)             0.5908         estimate D2E/DX2                !
 ! D20   D(46,2,6,12)         -178.6448         estimate D2E/DX2                !
 ! D21   D(5,2,46,1)          -178.7338         estimate D2E/DX2                !
 ! D22   D(5,2,46,19)           -7.1556         estimate D2E/DX2                !
 ! D23   D(6,2,46,1)            -0.9684         estimate D2E/DX2                !
 ! D24   D(6,2,46,19)          170.6098         estimate D2E/DX2                !
 ! D25   D(1,3,7,13)            -1.1577         estimate D2E/DX2                !
 ! D26   D(1,3,7,14)           178.6838         estimate D2E/DX2                !
 ! D27   D(8,3,7,13)           179.439          estimate D2E/DX2                !
 ! D28   D(8,3,7,14)            -0.7195         estimate D2E/DX2                !
 ! D29   D(1,4,6,2)              0.0046         estimate D2E/DX2                !
 ! D30   D(1,4,6,12)           179.0918         estimate D2E/DX2                !
 ! D31   D(9,4,6,2)            179.2266         estimate D2E/DX2                !
 ! D32   D(9,4,6,12)            -1.6862         estimate D2E/DX2                !
 ! D33   D(1,4,9,13)             0.2853         estimate D2E/DX2                !
 ! D34   D(1,4,9,15)          -179.5965         estimate D2E/DX2                !
 ! D35   D(6,4,9,13)          -178.8576         estimate D2E/DX2                !
 ! D36   D(6,4,9,15)             1.2606         estimate D2E/DX2                !
 ! D37   D(2,5,10,16)           -0.2124         estimate D2E/DX2                !
 ! D38   D(2,5,10,17)          179.6223         estimate D2E/DX2                !
 ! D39   D(11,5,10,16)         179.8866         estimate D2E/DX2                !
 ! D40   D(11,5,10,17)          -0.2787         estimate D2E/DX2                !
 ! D41   D(2,6,12,16)            0.1731         estimate D2E/DX2                !
 ! D42   D(2,6,12,18)          179.8097         estimate D2E/DX2                !
 ! D43   D(4,6,12,16)         -178.8213         estimate D2E/DX2                !
 ! D44   D(4,6,12,18)            0.8154         estimate D2E/DX2                !
 ! D45   D(3,7,13,9)            -0.9777         estimate D2E/DX2                !
 ! D46   D(3,7,13,44)          179.0302         estimate D2E/DX2                !
 ! D47   D(14,7,13,9)          179.1848         estimate D2E/DX2                !
 ! D48   D(14,7,13,44)          -0.8073         estimate D2E/DX2                !
 ! D49   D(4,9,13,7)             1.4029         estimate D2E/DX2                !
 ! D50   D(4,9,13,44)         -178.6048         estimate D2E/DX2                !
 ! D51   D(15,9,13,7)         -178.7169         estimate D2E/DX2                !
 ! D52   D(15,9,13,44)           1.2754         estimate D2E/DX2                !
 ! D53   D(5,10,16,12)          -0.2339         estimate D2E/DX2                !
 ! D54   D(5,10,16,45)         179.8904         estimate D2E/DX2                !
 ! D55   D(17,10,16,12)        179.9354         estimate D2E/DX2                !
 ! D56   D(17,10,16,45)          0.0597         estimate D2E/DX2                !
 ! D57   D(6,12,16,10)           0.2502         estimate D2E/DX2                !
 ! D58   D(6,12,16,45)        -179.8701         estimate D2E/DX2                !
 ! D59   D(18,12,16,10)       -179.3813         estimate D2E/DX2                !
 ! D60   D(18,12,16,45)          0.4984         estimate D2E/DX2                !
 ! D61   D(7,13,44,101)       -119.4369         estimate D2E/DX2                !
 ! D62   D(7,13,44,105)        120.6107         estimate D2E/DX2                !
 ! D63   D(7,13,44,109)          0.3911         estimate D2E/DX2                !
 ! D64   D(9,13,44,101)         60.5711         estimate D2E/DX2                !
 ! D65   D(9,13,44,105)        -59.3812         estimate D2E/DX2                !
 ! D66   D(9,13,44,109)       -179.6009         estimate D2E/DX2                !
 ! D67   D(10,16,45,89)        119.325          estimate D2E/DX2                !
 ! D68   D(10,16,45,93)       -120.7658         estimate D2E/DX2                !
 ! D69   D(10,16,45,97)         -0.7159         estimate D2E/DX2                !
 ! D70   D(12,16,45,89)        -60.5488         estimate D2E/DX2                !
 ! D71   D(12,16,45,93)         59.3604         estimate D2E/DX2                !
 ! D72   D(12,16,45,97)        179.4103         estimate D2E/DX2                !
 ! D73   D(24,19,20,21)          2.0692         estimate D2E/DX2                !
 ! D74   D(24,19,20,113)      -177.7387         estimate D2E/DX2                !
 ! D75   D(46,19,20,21)       -179.191          estimate D2E/DX2                !
 ! D76   D(46,19,20,113)         1.0011         estimate D2E/DX2                !
 ! D77   D(20,19,24,23)         -1.2136         estimate D2E/DX2                !
 ! D78   D(20,19,24,64)       -179.4859         estimate D2E/DX2                !
 ! D79   D(46,19,24,23)        179.998          estimate D2E/DX2                !
 ! D80   D(46,19,24,64)          1.7257         estimate D2E/DX2                !
 ! D81   D(20,19,46,1)          50.637          estimate D2E/DX2                !
 ! D82   D(20,19,46,2)        -119.3932         estimate D2E/DX2                !
 ! D83   D(24,19,46,1)        -130.6199         estimate D2E/DX2                !
 ! D84   D(24,19,46,2)          59.3498         estimate D2E/DX2                !
 ! D85   D(19,20,21,22)         -1.2862         estimate D2E/DX2                !
 ! D86   D(19,20,21,25)       -178.5327         estimate D2E/DX2                !
 ! D87   D(113,20,21,22)       178.5283         estimate D2E/DX2                !
 ! D88   D(113,20,21,25)         1.2818         estimate D2E/DX2                !
 ! D89   D(19,20,113,114)       51.9053         estimate D2E/DX2                !
 ! D90   D(19,20,113,115)     -118.9561         estimate D2E/DX2                !
 ! D91   D(21,20,113,114)     -127.9028         estimate D2E/DX2                !
 ! D92   D(21,20,113,115)       61.2358         estimate D2E/DX2                !
 ! D93   D(20,21,22,23)         -0.4156         estimate D2E/DX2                !
 ! D94   D(20,21,22,50)        178.3275         estimate D2E/DX2                !
 ! D95   D(25,21,22,23)        176.841          estimate D2E/DX2                !
 ! D96   D(25,21,22,50)         -4.4158         estimate D2E/DX2                !
 ! D97   D(21,22,23,24)          1.2972         estimate D2E/DX2                !
 ! D98   D(21,22,23,47)       -176.4854         estimate D2E/DX2                !
 ! D99   D(50,22,23,24)       -177.3516         estimate D2E/DX2                !
 ! D100  D(50,22,23,47)          4.8659         estimate D2E/DX2                !
 ! D101  D(21,22,50,51)        126.2218         estimate D2E/DX2                !
 ! D102  D(21,22,50,62)       -117.9564         estimate D2E/DX2                !
 ! D103  D(21,22,50,63)         12.1808         estimate D2E/DX2                !
 ! D104  D(23,22,50,51)        -55.0841         estimate D2E/DX2                !
 ! D105  D(23,22,50,62)         60.7377         estimate D2E/DX2                !
 ! D106  D(23,22,50,63)       -169.1251         estimate D2E/DX2                !
 ! D107  D(22,23,24,19)         -0.4761         estimate D2E/DX2                !
 ! D108  D(22,23,24,64)        177.8035         estimate D2E/DX2                !
 ! D109  D(47,23,24,19)        177.4012         estimate D2E/DX2                !
 ! D110  D(47,23,24,64)         -4.3192         estimate D2E/DX2                !
 ! D111  D(22,23,47,26)        -90.8608         estimate D2E/DX2                !
 ! D112  D(22,23,47,27)        106.7419         estimate D2E/DX2                !
 ! D113  D(24,23,47,26)         91.3511         estimate D2E/DX2                !
 ! D114  D(24,23,47,27)        -71.0462         estimate D2E/DX2                !
 ! D115  D(29,26,28,32)         -0.5525         estimate D2E/DX2                !
 ! D116  D(29,26,28,33)       -178.9746         estimate D2E/DX2                !
 ! D117  D(47,26,28,32)        179.5002         estimate D2E/DX2                !
 ! D118  D(47,26,28,33)          1.078          estimate D2E/DX2                !
 ! D119  D(28,26,29,31)       -178.5353         estimate D2E/DX2                !
 ! D120  D(28,26,29,34)          0.8681         estimate D2E/DX2                !
 ! D121  D(47,26,29,31)          1.4218         estimate D2E/DX2                !
 ! D122  D(47,26,29,34)       -179.1748         estimate D2E/DX2                !
[...]
 Iteration    20 Dimension    80 NMult    76 NNew      4
 CISAX will form     4 AO SS matrices at one time.
 NMat=     4 NSing=     4 JSym2X= 0.
 Root      1 not converged, maximum delta is    0.000001000057429
 Root      2 has converged.
 Root      3 not converged, maximum delta is    0.000001008465828
 Root      4 not converged, maximum delta is    0.000001848392692
 Excitation Energies [eV] at current iteration:
 Root      1 :     2.693415104891854   Change is   -0.000000000005547
 Root      2 :     2.935877917794731   Change is   -0.000000000009698
 Root      3 :     3.040366377581297   Change is   -0.000000000010525
 Root      4 :     3.442045375273662   Change is   -0.000000000190883
 Iteration    21 Dimension    83 NMult    80 NNew      3
 CISAX will form     3 AO SS matrices at one time.
 NMat=     3 NSing=     3 JSym2X= 0.
 Root      1 has converged.
 Root      2 has converged.
 Root      3 not converged, maximum delta is    0.000001000284037
 Root      4 not converged, maximum delta is    0.000001018814502
 Excitation Energies [eV] at current iteration:
 Root      1 :     2.693415104887642   Change is   -0.000000000004211
 Root      2 :     2.935877917794749   Change is    0.000000000000018
 Root      3 :     3.040366377571950   Change is   -0.000000000009347
 Root      4 :     3.442045375206045   Change is   -0.000000000067618
 Iteration    22 Dimension    85 NMult    83 NNew      2
 CISAX will form     2 AO SS matrices at one time.
 NMat=     2 NSing=     2 JSym2X= 0.
 Root      1 has converged.
 Root      2 has converged.
 Root      3 not converged, maximum delta is    0.000001000863501
 Root      4 not converged, maximum delta is    0.000001019468370
 Excitation Energies [eV] at current iteration:
 Root      1 :     2.693415104887655   Change is    0.000000000000012
 Root      2 :     2.935877917794737   Change is   -0.000000000000012
 Root      3 :     3.040366377564240   Change is   -0.000000000007710
 Root      4 :     3.442045375155363   Change is   -0.000000000050681
 Iteration    23 Dimension    87 NMult    85 NNew      2
 CISAX will form     2 AO SS matrices at one time.
 NMat=     2 NSing=     2 JSym2X= 0.
 Root      1 has converged.
 Root      2 has converged.
 Root      3 not converged, maximum delta is    0.000001008066257
 Root      4 not converged, maximum delta is    0.000001038876350
 Excitation Energies [eV] at current iteration:
 Root      1 :     2.693415104887649   Change is   -0.000000000000006
 Root      2 :     2.935877917794713   Change is   -0.000000000000024
 Root      3 :     3.040366377557932   Change is   -0.000000000006308
 Root      4 :     3.442045375087020   Change is   -0.000000000068343
 Iteration    24 Dimension    89 NMult    87 NNew      2
 CISAX will form     2 AO SS matrices at one time.
 NMat=     2 NSing=     2 JSym2X= 0.
 Root      1 has converged.
 Root      2 has converged.
 Root      3 not converged, maximum delta is    0.000001000102982
 Root      4 not converged, maximum delta is    0.000001007753267
 Excitation Energies [eV] at current iteration:
 Root      1 :     2.693415104887642   Change is   -0.000000000000006
 Root      2 :     2.935877917794701   Change is   -0.000000000000012
 Root      3 :     3.040366377552180   Change is   -0.000000000005752
 Root      4 :     3.442045375056381   Change is   -0.000000000030640
 Iteration    25 Dimension    91 NMult    89 NNew      2
 CISAX will form     2 AO SS matrices at one time.
 NMat=     2 NSing=     2 JSym2X= 0.
 Root      1 has converged.
 Root      2 has converged.
 Root      3 not converged, maximum delta is    0.000001000076855
 Root      4 not converged, maximum delta is    0.000001000434225
 Excitation Energies [eV] at current iteration:
 Root      1 :     2.693415104887655   Change is    0.000000000000012
 Root      2 :     2.935877917794664   Change is   -0.000000000000036
 Root      3 :     3.040366377547352   Change is   -0.000000000004828
 Root      4 :     3.442045375039378   Change is   -0.000000000017003
 Iteration    26 Dimension    93 NMult    91 NNew      2
 CISAX will form     2 AO SS matrices at one time.
 NMat=     2 NSing=     2 JSym2X= 0.
 Root      1 has converged.
 Root      2 has converged.
 Root      3 not converged, maximum delta is    0.000001013883842
 Root      4 not converged, maximum delta is    0.000001000178193
 Excitation Energies [eV] at current iteration:
 Root      1 :     2.693415104887630   Change is   -0.000000000000024
 Root      2 :     2.935877917794598   Change is   -0.000000000000066
 Root      3 :     3.040366377543250   Change is   -0.000000000004103
 Root      4 :     3.442045375027820   Change is   -0.000000000011559
 Iteration    27 Dimension    95 NMult    93 NNew      2
 CISAX will form     2 AO SS matrices at one time.
 NMat=     2 NSing=     2 JSym2X= 0.
 Root      1 has converged.
 Root      2 not converged, maximum delta is    0.000001000000823
 Root      3 not converged, maximum delta is    0.000001000333299
 Root      4 not converged, maximum delta is    0.000001000005518
 Excitation Energies [eV] at current iteration:
 Root      1 :     2.693415104887642   Change is    0.000000000000012
 Root      2 :     2.935877917794598   Change is    0.000000000000000
 Root      3 :     3.040366377539606   Change is   -0.000000000003643
 Root      4 :     3.442045375019354   Change is   -0.000000000008465
 Iteration    28 Dimension    98 NMult    95 NNew      3
 CISAX will form     3 AO SS matrices at one time.
 NMat=     3 NSing=     3 JSym2X= 0.
 Root      1 has converged.
 Root      2 not converged, maximum delta is    0.000001004619678
 Root      3 not converged, maximum delta is    0.000001000016757
 Root      4 not converged, maximum delta is    0.000001014158563
 Excitation Energies [eV] at current iteration:
 Root      1 :     2.693415104887630   Change is   -0.000000000000012
 Root      2 :     2.935877917788084   Change is   -0.000000000006513
 Root      3 :     3.040366377536265   Change is   -0.000000000003341
 Root      4 :     3.442045375012738   Change is   -0.000000000006616
 Iteration    29 Dimension   101 NMult    98 NNew      3
 CISAX will form     3 AO SS matrices at one time.
 NMat=     3 NSing=     3 JSym2X= 0.
 Root      1 has converged.
 Root      2 has converged.
 Root      3 not converged, maximum delta is    0.000001000052640
 Root      4 not converged, maximum delta is    0.000001000263305
 Excitation Energies [eV] at current iteration:
 Root      1 :     2.693415104887625   Change is   -0.000000000000006
 Root      2 :     2.935877917782181   Change is   -0.000000000005903
 Root      3 :     3.040366377533425   Change is   -0.000000000002840
 Root      4 :     3.442045375007427   Change is   -0.000000000005311
 Iteration    30 Dimension   103 NMult   101 NNew      2
 CISAX will form     2 AO SS matrices at one time.
 NMat=     2 NSing=     2 JSym2X= 0.
 Root      1 has converged.
 Root      2 has converged.
 Root      3 not converged, maximum delta is    0.000001000063071
 Root      4 not converged, maximum delta is    0.000001000263307
 Excitation Energies [eV] at current iteration:
 Root      1 :     2.693415104887612   Change is   -0.000000000000012
 Root      2 :     2.935877917782127   Change is   -0.000000000000054
 Root      3 :     3.040366377530730   Change is   -0.000000000002695
 Root      4 :     3.442045375002926   Change is   -0.000000000004501
 Iteration    31 Dimension   105 NMult   103 NNew      2
 CISAX will form     2 AO SS matrices at one time.
 NMat=     2 NSing=     2 JSym2X= 0.
 Root      1 has converged.
 Root      2 has converged.
 Root      3 not converged, maximum delta is    0.000001000025062
 Root      4 not converged, maximum delta is    0.000001004645654
 Excitation Energies [eV] at current iteration:
 Root      1 :     2.693415104887618   Change is    0.000000000000006
 Root      2 :     2.935877917782115   Change is   -0.000000000000012
 Root      3 :     3.040366377527963   Change is   -0.000000000002767
 Root      4 :     3.442045374999059   Change is   -0.000000000003867
 Iteration    32 Dimension   107 NMult   105 NNew      2
 CISAX will form     2 AO SS matrices at one time.
 NMat=     2 NSing=     2 JSym2X= 0.
 Root      1 has converged.
 Root      2 has converged.
 Root      3 not converged, maximum delta is    0.000001000022115
 Root      4 not converged, maximum delta is    0.000001000060296
 Excitation Energies [eV] at current iteration:
 Root      1 :     2.693415104887618   Change is    0.000000000000000
 Root      2 :     2.935877917782097   Change is   -0.000000000000018
 Root      3 :     3.040366377525045   Change is   -0.000000000002918
 Root      4 :     3.442045374995681   Change is   -0.000000000003378
 Iteration    33 Dimension   109 NMult   107 NNew      2
 CISAX will form     2 AO SS matrices at one time.
 NMat=     2 NSing=     2 JSym2X= 0.
 Root      1 has converged.
 Root      2 has converged.
 Root      3 not converged, maximum delta is    0.000001009284601
 Root      4 not converged, maximum delta is    0.000001000051507
 Excitation Energies [eV] at current iteration:
 Root      1 :     2.693415104887612   Change is   -0.000000000000006
 Root      2 :     2.935877917782073   Change is   -0.000000000000024
 Root      3 :     3.040366377522290   Change is   -0.000000000002755
 Root      4 :     3.442045374992763   Change is   -0.000000000002918
 Iteration    34 Dimension   111 NMult   109 NNew      2
 CISAX will form     2 AO SS matrices at one time.
 NMat=     2 NSing=     2 JSym2X= 0.
 Root      1 has converged.
 Root      2 has converged.
 Root      3 not converged, maximum delta is    0.000001002385240
 Root      4 not converged, maximum delta is    0.000001000016847
 Excitation Energies [eV] at current iteration:
 Root      1 :     2.693415104887576   Change is   -0.000000000000036
 Root      2 :     2.935877917782042   Change is   -0.000000000000030
 Root      3 :     3.040366377519619   Change is   -0.000000000002671
 Root      4 :     3.442045374989978   Change is   -0.000000000002785
 Iteration    35 Dimension   113 NMult   111 NNew      2
 CISAX will form     2 AO SS matrices at one time.
 NMat=     2 NSing=     2 JSym2X= 0.
 Root      1 has converged.
 Root      2 has converged.
 Root      3 not converged, maximum delta is    0.000001007939103
 Root      4 not converged, maximum delta is    0.000001000016901
 Excitation Energies [eV] at current iteration:
 Root      1 :     2.693415104887582   Change is    0.000000000000006
 Root      2 :     2.935877917782024   Change is   -0.000000000000018
 Root      3 :     3.040366377517377   Change is   -0.000000000002242
 Root      4 :     3.442045374987476   Change is   -0.000000000002501
 Iteration    36 Dimension   115 NMult   113 NNew      2
 CISAX will form     2 AO SS matrices at one time.
 NMat=     2 NSing=     2 JSym2X= 0.
 Root      1 has converged.
 Root      2 has converged.
 Root      3 has converged.
 Root      4 not converged, maximum delta is    0.000001000016901
 Excitation Energies [eV] at current iteration:
 Root      1 :     2.693415104887600   Change is    0.000000000000018
 Root      2 :     2.935877917782018   Change is   -0.000000000000006
 Root      3 :     3.040366377515238   Change is   -0.000000000002139
 Root      4 :     3.442045374985168   Change is   -0.000000000002308
 Iteration    37 Dimension   116 NMult   115 NNew      1
 CISAX will form     1 AO SS matrices at one time.
 NMat=     1 NSing=     1 JSym2X= 0.
 Root      1 has converged.
 Root      2 has converged.
 Root      3 has converged.
 Root      4 has converged.
 Excitation Energies [eV] at current iteration:
 Root      1 :     2.693415104887582   Change is   -0.000000000000018
 Root      2 :     2.935877917782000   Change is   -0.000000000000018
 Root      3 :     3.040366377515274   Change is    0.000000000000036
 Root      4 :     3.442045374983102   Change is   -0.000000000002066
 Convergence achieved on expansion vectors.
 ***********************************************************************
 Excited states from <AA,BB:AA,BB> singles matrix:
 ***********************************************************************
 
 1PDM for each excited state written to RWF  633
 Ground to excited state transition densities written to RWF  633
 Ground to excited state transition electric dipole moments (Au):
       state          X           Y           Z        Dip. S.      Osc.
         1        -0.0047     -0.1192     -0.3151      0.1135      0.0075
         2        -0.4389      0.0826      0.1350      0.2176      0.0157
         3        -0.3443     -0.0266      0.1939      0.1568      0.0117
         4         0.1251     -0.0058     -0.0040      0.0157      0.0013
 Ground to excited state transition velocity dipole moments (Au):
       state          X           Y           Z        Dip. S.      Osc.
         1        -0.0039      0.0107     -0.0088      0.0002      0.0014
         2         0.0305     -0.0025     -0.0019      0.0009      0.0058
         3         0.0260      0.0066     -0.0050      0.0007      0.0045
         4        -0.0121      0.0006     -0.0002      0.0001      0.0008
 Ground to excited state transition magnetic dipole moments (Au):
       state          X           Y           Z
         1        -0.0360     -0.2227      0.0225
         2        -0.2025     -0.0492      0.2043
         3         0.0841      0.0475      0.0810
         4         0.0489      0.0331     -0.0384
 Ground to excited state transition velocity quadrupole moments (Au):
       state          XX          YY          ZZ          XY          XZ          YZ
         1        -0.0307      0.0450      0.1012     -0.0287     -0.1426      0.0240
         2         0.3039     -0.0908      0.0285     -0.0510      0.0686     -0.0684
         3         0.2176     -0.1265      0.0155      0.0313      0.0389     -0.0169
         4        -0.0255      0.0441     -0.0707     -0.0024     -0.0000      0.0187
 <0|del|b> * <b|rxdel|0> + <0|del|b> * <b|delr+rdel|0>
 Rotatory Strengths (R) in cgs (10**-40 erg-esu-cm/Gauss)
       state          XX          YY          ZZ    R(velocity)    E-M Angle
         1        -2.8558     -1.4344    -13.0805     -5.7903      138.41
         2         0.0186    -28.6204    -13.5463    -14.0494      136.01
         3        -1.5843      4.7514     10.1302      4.4324       52.38
         4         0.0796     -2.2576     -0.9608     -1.0463      131.33
 1/2[<0|r|b>*<b|rxdel|0> + (<0|rxdel|b>*<b|r|0>)*]
 Rotatory Strengths (R) in cgs (10**-40 erg-esu-cm/Gauss)
       state          XX          YY          ZZ     R(length)
         1        -0.1198    -18.7732      5.0155     -4.6259
         2       -62.8325      2.8720    -19.5000    -26.4868
         3        20.4715      0.8925    -11.1062      3.4193
         4        -4.3226      0.1344     -0.1084     -1.4322
  1/2[<0|del|b>*<b|r|0> + (<0|r|b>*<b|del|0>)*] (Au)
       state          X           Y           Z        Dip. S.   Osc.(frdel)
         1         0.0000     -0.0013      0.0028     -0.0015     -0.0010
         2        -0.0134     -0.0002     -0.0003      0.0138      0.0092
         3        -0.0090     -0.0002     -0.0010      0.0101      0.0067
         4        -0.0015     -0.0000      0.0000      0.0015      0.0010

 Excitation energies and oscillator strengths:
 
 Excited State   1:      Singlet-A      2.6934 eV  460.32 nm  f=0.0075  <S**2>=0.000
     282 -> 283        0.69520
 This state for optimization and/or second-order correction.
 Total Energy, E(CIS/TDA) =  -3503.67173418    
 Copying the excited state density for this state as the 1-particle RhoCI density.
 
 Excited State   2:      Singlet-A      2.9359 eV  422.31 nm  f=0.0157  <S**2>=0.000
     280 -> 283        0.20338
     281 -> 283       -0.66260
 
 Excited State   3:      Singlet-A      3.0404 eV  407.79 nm  f=0.0117  <S**2>=0.000
     280 -> 283       -0.66265
     281 -> 283       -0.19942
 
 Excited State   4:      Singlet-A      3.4420 eV  360.20 nm  f=0.0013  <S**2>=0.000
     279 -> 283       -0.69175
 SavETr:  write IOETrn=   770 NScale= 10 NData=  16 NLR=1 NState=    4 LETran=      82.
 The selected state is a singlet.
 CISGrd: IGrad=2 NXY=1 DFT=T
 CISAX will form     1 AO SS matrices at one time.
 NMat=     1 NSing=     1 JSym2X= 0.
 Leave Link  914 at Fri Nov  8 07:27:05 2024, MaxMem=  2147483648 cpu:          131125.0 elap:           12925.3
 (Enter /apps/gaussian/g16/l1002.exe)
 Minotr:  Closed shell wavefunction.
          Computing CIS/TDA/TD derivatives.
          Using Z-Vector for PSCF gradient.
          Skipping F1 and S1 gradient terms here.
          IDoAtm=11111111111111111111111111111111111111111111111111
          IDoAtm=11111111111111111111111111111111111111111111111111
          IDoAtm=11111111111111111111111111111111111111111111111111
          IDoAtm=1111111
          Frozen-core window.
          Direct CPHF calculation.
          Differentiating once with respect to electric field.
                with respect to dipole field.
          Differentiating once with respect to nuclear coordinates.
          Requested convergence is 1.0D-10 RMS, and 1.0D-09 maximum.
          NewPWx=F KeepS1=T KeepF1=T KeepIn=T MapXYZ=F SortEE=F KeepMc=T.
 Two-electron integral symmetry used by symmetrizing perturbed Fock matrices.
          MDV=    2147483648 using IRadAn=       5.
          Solving linear equations separately, MaxMat=      72.
          There are     1 degrees of freedom in the 1st order CPHF.  IDoFFX=0 NUNeed=     1.
 FoFJK:  IHMeth= 1 ICntrl=       0 DoSepK=T KAlg= 0 I1Cent=           0 FoldK=F
 IRaf=         1 NMat=       1 IRICut=       1 DoRegI=T DoRafI=F ISym2E= 2 IDoP0=0 IntGTp=1.
 FoFCou: FMM=T IPFlag=           0 FMFlag=      100000 FMFlg1=        2001
         NFxFlg=           0 DoJE=T BraDBF=F KetDBF=F FulRan=T
         wScrn=  0.000000 ICntrl=       500 IOpCl=  0 I1Cent=           0 NGrid=           0
         NMat0=    1 NMatS0=      1 NMatT0=    0 NMatD0=    1 NMtDS0=    0 NMtDT0=    0
 Symmetry not used in FoFCou.
 FMM levels:  10  Number of levels for PrismC:   9
 LinEq1:  Iter=  0 NonCon=     1 RMS=1.79D-03 Max=1.94D-01 NDo=     1
 AX will form     1 AO Fock derivatives at one time.
 LinEq1:  Iter=  1 NonCon=     1 RMS=8.76D-04 Max=9.47D-02 NDo=     1
 LinEq1:  Iter=  2 NonCon=     1 RMS=6.41D-04 Max=1.19D-01 NDo=     1
 LinEq1:  Iter=  3 NonCon=     1 RMS=3.47D-04 Max=6.47D-02 NDo=     1
 LinEq1:  Iter=  4 NonCon=     1 RMS=2.58D-04 Max=5.16D-02 NDo=     1
 LinEq1:  Iter=  5 NonCon=     1 RMS=1.53D-04 Max=2.56D-02 NDo=     1
 LinEq1:  Iter=  6 NonCon=     1 RMS=8.62D-05 Max=1.37D-02 NDo=     1
 LinEq1:  Iter=  7 NonCon=     1 RMS=5.63D-05 Max=7.88D-03 NDo=     1
 LinEq1:  Iter=  8 NonCon=     1 RMS=3.49D-05 Max=4.71D-03 NDo=     1
 LinEq1:  Iter=  9 NonCon=     1 RMS=1.91D-05 Max=2.31D-03 NDo=     1
 LinEq1:  Iter= 10 NonCon=     1 RMS=9.31D-06 Max=1.20D-03 NDo=     1
 LinEq1:  Iter= 11 NonCon=     1 RMS=5.82D-06 Max=6.43D-04 NDo=     1
 LinEq1:  Iter= 12 NonCon=     1 RMS=3.45D-06 Max=4.07D-04 NDo=     1
 LinEq1:  Iter= 13 NonCon=     1 RMS=2.47D-06 Max=2.83D-04 NDo=     1
 LinEq1:  Iter= 14 NonCon=     1 RMS=1.32D-06 Max=1.36D-04 NDo=     1
 LinEq1:  Iter= 15 NonCon=     1 RMS=6.72D-07 Max=6.00D-05 NDo=     1
 LinEq1:  Iter= 16 NonCon=     1 RMS=3.61D-07 Max=3.08D-05 NDo=     1
 LinEq1:  Iter= 17 NonCon=     1 RMS=1.99D-07 Max=1.72D-05 NDo=     1
 LinEq1:  Iter= 18 NonCon=     1 RMS=1.04D-07 Max=1.13D-05 NDo=     1
 LinEq1:  Iter= 19 NonCon=     1 RMS=6.18D-08 Max=6.05D-06 NDo=     1
 LinEq1:  Iter= 20 NonCon=     1 RMS=3.14D-08 Max=3.68D-06 NDo=     1
 LinEq1:  Iter= 21 NonCon=     1 RMS=1.87D-08 Max=1.93D-06 NDo=     1
 LinEq1:  Iter= 22 NonCon=     1 RMS=8.83D-09 Max=1.22D-06 NDo=     1
 LinEq1:  Iter= 23 NonCon=     1 RMS=4.89D-09 Max=5.03D-07 NDo=     1
 LinEq1:  Iter= 24 NonCon=     1 RMS=2.76D-09 Max=4.88D-07 NDo=     1
 LinEq1:  Iter= 25 NonCon=     1 RMS=1.49D-09 Max=1.88D-07 NDo=     1
