 Entering Gaussian System, Link 0=g16
 Initial command:
 /apps/gaussian/g16/l1.exe "/local/Gau-168644.inp" -scrdir="/local/"
 Entering Link 1 = /apps/gaussian/g16/l1.exe PID=    168645.
  
 Copyright (c) 1988-2019, Gaussian, Inc.  All Rights Reserved.
  
 This is part of the Gaussian(R) 16 program.  It is based on
 the Gaussian(R) 09 system (copyright 2009, Gaussian, Inc.),
 the Gaussian(R) 03 system (copyright 2003, Gaussian, Inc.),
 the Gaussian(R) 98 system (copyright 1998, Gaussian, Inc.),
 the Gaussian(R) 94 system (copyright 1995, Gaussian, Inc.),
 the Gaussian 92(TM) system (copyright 1992, Gaussian, Inc.),
 the Gaussian 90(TM) system (copyright 1990, Gaussian, Inc.),
 the Gaussian 88(TM) system (copyright 1988, Gaussian, Inc.),
 the Gaussian 86(TM) system (copyright 1986, Carnegie Mellon
 University), and the Gaussian 82(TM) system (copyright 1983,
 Carnegie Mellon University). Gaussian is a federally registered
 trademark of Gaussian, Inc.
  
 This software contains proprietary and confidential information,
 including trade secrets, belonging to Gaussian, Inc.
  
 This software is provided under written license and may be
 used, copied, transmitted, or stored only in accord with that
 written license.
  
 The following legend is applicable only to US Government
 contracts under FAR:
  
                    RESTRICTED RIGHTS LEGEND
  
 Use, reproduction and disclosure by the US Government is
 subject to restrictions as set forth in subparagraphs (a)
 and (c) of the Commercial Computer Software - Restricted
 Rights clause in FAR 52.227-19.
  
 Gaussian, Inc.
 340 Quinnipiac St., Bldg. 40, Wallingford CT 06492
  
  
 ---------------------------------------------------------------
 Warning -- This program may not be used in any manner that
 competes with the business of Gaussian, Inc. or will provide
 assistance to any competitor of Gaussian, Inc.  The licensee
 of this program is prohibited from giving any competitor of
 Gaussian, Inc. access to this program.  By using this program,
 the user acknowledges that Gaussian, Inc. is engaged in the
 business of creating and licensing software in the field of
 computational chemistry and represents and warrants to the
 licensee that it is not a competitor of Gaussian, Inc. and that
 it will not use this program in any manner prohibited above.
 ---------------------------------------------------------------
  

 Cite this work as:
 Gaussian 16, Revision C.01,
 M. J. Frisch, G. W. Trucks, H. B. Schlegel, G. E. Scuseria, 
 M. A. Robb, J. R. Cheeseman, G. Scalmani, V. Barone, 
 G. A. Petersson, H. Nakatsuji, X. Li, M. Caricato, A. V. Marenich, 
 J. Bloino, B. G. Janesko, R. Gomperts, B. Mennucci, H. P. Hratchian, 
 J. V. Ortiz, A. F. Izmaylov, J. L. Sonnenberg, D. Williams-Young, 
 F. Ding, F. Lipparini, F. Egidi, J. Goings, B. Peng, A. Petrone, 
 T. Henderson, D. Ranasinghe, V. G. Zakrzewski, J. Gao, N. Rega, 
 G. Zheng, W. Liang, M. Hada, M. Ehara, K. Toyota, R. Fukuda, 
 J. Hasegawa, M. Ishida, T. Nakajima, Y. Honda, O. Kitao, H. Nakai, 
 T. Vreven, K. Throssell, J. A. Montgomery, Jr., J. E. Peralta, 
 F. Ogliaro, M. J. Bearpark, J. J. Heyd, E. N. Brothers, K. N. Kudin, 
 V. N. Staroverov, T. A. Keith, R. Kobayashi, J. Normand, 
 K. Raghavachari, A. P. Rendell, J. C. Burant, S. S. Iyengar, 
 J. Tomasi, M. Cossi, J. M. Millam, M. Klene, C. Adamo, R. Cammi, 
 J. W. Ochterski, R. L. Martin, K. Morokuma, O. Farkas, 
 J. B. Foresman, and D. J. Fox, Gaussian, Inc., Wallingford CT, 2019.
 
 ******************************************
 Gaussian 16:  ES64L-G16RevC.01  3-Jul-2019
                 3-Nov-2024 
 ******************************************
 %chk=YZ-IX-137.chk
 %nprocshared=16
 Will use up to   16 processors via shared memory.
 %mem=16GB
 ----------------------------------------------------------------------
 #p opt wb97xd/6-31G** iop(3/107=0105700000,3/108=0105700000) TDA=(trip
 lets, nstates=4, root=2)
 ----------------------------------------------------------------------
 1/18=20,19=15,26=3,38=1/1,3;
 2/9=110,12=2,17=6,18=5,40=1/2;
 3/5=1,6=6,7=101,11=9,25=1,30=1,71=1,74=-58,107=105700000,108=105700000/1,2,3,8;
 4//1;
 5/5=2,38=5/2;
 8/6=1,10=2,107=2,108=4/1;
 9/8=2,15=2,41=4,42=1,48=3/14;
 10/5=4,28=2/2;
 6/7=2,8=2,9=2,10=2/1;
 7/12=6,13=5,14=2/1,2,3,16;
 1/18=20,19=15,26=3/3(2);
 2/9=110/2;
 99//99;
 2/9=110/2;
 3/5=1,6=6,7=101,11=9,25=1,30=1,71=1,74=-58,107=105700000,108=105700000/1,2,3,8;
 4/5=5,16=3,69=1/1;
 5/5=2,38=5/2;
 8/6=1,10=2,107=2,108=4/1;
 9/8=2,15=2,41=4,42=1,48=3,49=4/14;
 10/5=4,28=2/2;
 7/12=6,13=5,14=2/1,2,3,16;
 1/18=20,19=15,26=3/3(-8);
 2/9=110/2;
 6/7=2,8=2,9=2,10=2/1;
 99/9=10/99;
 Leave Link    1 at Sun Nov  3 23:24:01 2024, MaxMem=  2147483648 cpu:               0.8 elap:               0.2
 (Enter /apps/gaussian/g16/l101.exe)
 ------------------------------------------------------------
 Tuning input file generated by xtune with parameters: w01057
 ------------------------------------------------------------
 Symbolic Z-matrix:
 Charge =  0 Multiplicity = 1
 C                     1.18875  -1.00843  -0.61198 
 C                    -0.64937  -0.95778   0.71774 
 C                     2.20015  -0.72751  -1.52153 
 C                     1.04879  -2.29597  -0.05627 
 C                    -1.75201  -0.58537   1.47589 
 C                    -0.13139  -2.26669   0.7848 
 C                     3.109    -1.74014  -1.82044 
 H                     2.30092   0.24758  -1.98203 
 C                     1.96797  -3.29118  -0.37877 
 C                    -2.36869  -1.56131   2.25584 
 H                    -2.13935   0.42594   1.46311 
 C                    -0.76418  -3.2203    1.57847 
 C                     3.02645  -3.02617  -1.25576 
 H                     3.90712  -1.50211  -2.51196 
 H                     1.85399  -4.27588   0.06352 
 C                    -1.90629  -2.8886    2.31721 
 H                    -3.24154  -1.26483   2.82345 
 H                    -0.35977  -4.22692   1.61465 
 C                    -0.04852   1.16071  -0.45977 
 C                    -1.25778   1.57986  -1.07234 
 C                    -1.45529   2.92409  -1.38782 
 C                    -0.47212   3.85447  -1.07651 
 C                     0.72105   3.47498  -0.47871 
 C                     0.94738   2.12951  -0.17821 
 H                    -2.35995   3.22269  -1.90321 
 H                     1.47485   4.21409  -0.23614 
 C                     4.0533   -4.13127  -1.56049 
 C                    -2.61067  -3.97238   3.15281 
 N                     0.15388  -0.19101  -0.13725 
 C                    -1.77368   6.09232  -0.00438 
 C                    -3.1638    6.04178  -0.10641 
 C                    -1.13862   6.49074   1.17174 
 C                    -3.93262   6.3903    1.00301 
 H                    -3.6269    5.75348  -1.04279 
 C                    -1.91886   6.83704   2.27305 
 H                    -0.05692   6.54197   1.21343 
 C                    -3.31127   6.78228   2.18965 
 H                    -5.01463   6.36189   0.93739 
 H                    -1.44007   7.15337   3.193 
 H                    -3.91377   7.05266   3.05009 
 O                     0.51185   6.28623  -1.32933 
 O                    -1.61814   5.67377  -2.60814 
 C                     3.33578  -5.34931  -2.18449 
 H                     4.05379  -6.1475   -2.40162 
 H                     2.57529  -5.76105  -1.51511 
 H                     2.84211  -5.07086  -3.1203 
 C                     4.74405  -4.55646  -0.24442 
 H                     5.49234  -5.33303  -0.4367 
 H                     5.24597  -3.70329   0.22159 
 H                     4.02757  -4.9568    0.4783 
 C                     5.14349  -3.66406  -2.54173 
 H                     4.72198  -3.36956  -3.50792 
 H                     5.71395  -2.82039  -2.14213 
 H                     5.84785  -4.48102  -2.72574 
 C                    -3.84561  -3.43012   3.89483 
 H                    -3.58085  -2.63438   4.59823 
 H                    -4.597    -3.04209   3.20078 
 H                    -4.31239  -4.23542   4.47018 
 C                    -3.07683  -5.11025   2.21616 
 H                    -2.23571  -5.57867   1.69774 
 H                    -3.59288  -5.89017   2.7866 
 H                    -3.76467  -4.72791   1.45632 
 C                    -1.62944  -4.53814   4.20388 
 H                    -2.11558  -5.31614   4.80235 
 H                    -0.74528  -4.98218   3.73838 
 H                    -1.28964  -3.74923   4.88155 
 S                    -0.7761    5.59453  -1.41302 
 N                     2.185     1.77668   0.39704 
 C                     2.39014   0.99327   1.53929 
 C                     3.42521   1.95668  -0.23453 
 C                     1.48529   0.59762   2.52105 
 C                     3.75185   0.6511    1.62818 
 C                     3.7407    2.63008  -1.41038 
 C                     4.41635   1.26905   0.49808 
 C                     1.95825  -0.20735   3.54768 
 H                     0.44234   0.88659   2.48508 
 C                     4.2025   -0.15225   2.67998 
 C                     5.06921   2.61492  -1.8341 
 H                     2.98838   3.15224  -1.99058 
 C                     5.73524   1.27321   0.04847 
 C                     3.30822  -0.6122    3.64619 
 H                     1.24528  -0.53897   4.29496 
 H                     5.25239  -0.41565   2.72377 
 C                     6.0871    1.94856  -1.12619 
 H                     5.30687   3.14583  -2.74756 
 H                     6.48658   0.73707   0.61963 
 C                     3.73155  -1.54628   4.79223 
 C                     7.55209   1.93469  -1.5997 
 C                     3.41146  -0.88513   6.1517 
 C                     2.95529  -2.87758   4.66833 
 C                     5.23704  -1.86468   4.75807 
 C                     7.9918    0.47644  -1.86285 
 C                     8.4516    2.55457  -0.50639 
 C                     7.75684   2.73672  -2.89769 
 H                     2.34319  -0.68086   6.2645 
 H                     3.71138  -1.54133   6.9758 
 H                     3.94632   0.06342   6.25801 
 H                     1.87505  -2.72413   4.73226 
 H                     3.16556  -3.35903   3.70882 
 H                     3.24424  -3.56589   5.47012 
 H                     5.52326  -2.37161   3.83126 
 H                     5.84579  -0.96071   4.86025 
 H                     5.49236  -2.52959   5.58873 
 H                     9.03409   0.44491  -2.19801 
 H                     7.91368  -0.14023  -0.96307 
 H                     7.37038   0.01806  -2.6379 
 H                     8.39565   1.9952    0.43157 
 H                     9.49837   2.55832  -0.82879 
 H                     8.15419   3.5865   -0.2979 
 H                     7.17142   2.32671  -3.72657 
 H                     7.48724   3.78986  -2.77187 
 H                     8.81044   2.69962  -3.19053 
 N                    -2.29338   0.67067  -1.36576 
 C                    -3.57856   0.73865  -0.80921 
 C                    -2.1799   -0.54556  -2.05108 
 C                    -4.15946   1.72644  -0.02037 
 C                    -4.27888  -0.44593  -1.12276 
 C                    -1.13039  -1.0397   -2.81498 
 C                    -3.3822   -1.26829  -1.91241 
 C                    -5.46025   1.51638   0.43697 
 H                    -3.62608   2.63256   0.24432 
 C                    -5.57748  -0.62535  -0.65184 
 C                    -1.27477  -2.30378  -3.37956 
 H                    -0.2173   -0.47642  -2.96116 
 C                    -3.50236  -2.52787  -2.4972 
 C                    -6.19488   0.35474   0.13527 
 H                    -5.90514   2.292     1.04825 
 H                    -6.10362  -1.54209  -0.89864 
 C                    -2.44138  -3.07701  -3.22575 
 H                    -0.44079  -2.6905   -3.95109 
 H                    -4.42796  -3.08097  -2.37265 
 C                    -7.63176   0.12843   0.63987 
 C                    -2.57818  -4.49144  -3.8173 
 C                    -7.67131  -1.13752   1.52569 
 C                    -8.57735  -0.05848  -0.56833 
 C                    -8.15355   1.3116    1.47531 
 C                    -1.3219   -4.92563  -4.59407 
 C                    -2.80167  -5.49951  -2.66685 
 C                    -3.78147  -4.53652  -4.78554 
 H                    -8.68809  -1.31875   1.89038 
 H                    -7.35212  -2.02763   0.97651 
 H                    -7.01304  -1.02502   2.39219 
 H                    -8.56123   0.8241   -1.21458 
 H                    -8.29402  -0.92191  -1.17641 
 H                    -9.60664  -0.21535  -0.22831 
 H                    -7.54617   1.4773    2.3707 
 H                    -8.17589   2.2397    0.89553 
 H                    -9.176     1.10585   1.80608 
 H                    -1.11859  -4.26367  -5.44161 
 H                    -0.43596  -4.94802  -3.95236 
 H                    -1.46623  -5.93465  -4.99214 
 H                    -3.71442  -5.27855  -2.10659 
 H                    -2.89027  -6.5179   -3.06063 
 H                    -1.96476  -5.47432  -1.96288 
 H                    -4.71978  -4.29016  -4.28076 
 H                    -3.64706  -3.82522  -5.60586 
 H                    -3.88967  -5.53823  -5.21521 
 
 ITRead=  0  0  0  0  0  0  0  0  0  0  0  0  0  0  0  0  0  0  0  0
 ITRead=  0  0  0  0  0  0  0  0  0  0  0  0  0  0  0  0  0  0  0  0
 ITRead=  0  0  0  0  0  0  0  0  0  0  0  0  0  0  0  0  0  0  0  0
 ITRead=  0  0  0  0  0  0  0  0  0  0  0  0  0  0  0  0  0  0  0  0
 ITRead=  0  0  0  0  0  0  0  0  0  0  0  0  0  0  0  0  0  0  0  0
 ITRead=  0  0  0  0  0  0  0  0  0  0  0  0  0  0  0  0  0  0  0  0
 ITRead=  0  0  0  0  0  0  0  0  0  0  0  0  0  0  0  0  0  0  0  0
 ITRead=  0  0  0  0  0  0  0  0  0  0  0  0  0  0  0  0  0
 MicOpt= -1 -1 -1 -1 -1 -1 -1 -1 -1 -1 -1 -1 -1 -1 -1 -1 -1 -1 -1 -1
 MicOpt= -1 -1 -1 -1 -1 -1 -1 -1 -1 -1 -1 -1 -1 -1 -1 -1 -1 -1 -1 -1
 MicOpt= -1 -1 -1 -1 -1 -1 -1 -1 -1 -1 -1 -1 -1 -1 -1 -1 -1 -1 -1 -1
 MicOpt= -1 -1 -1 -1 -1 -1 -1 -1 -1 -1 -1 -1 -1 -1 -1 -1 -1 -1 -1 -1
 MicOpt= -1 -1 -1 -1 -1 -1 -1 -1 -1 -1 -1 -1 -1 -1 -1 -1 -1 -1 -1 -1
 MicOpt= -1 -1 -1 -1 -1 -1 -1 -1 -1 -1 -1 -1 -1 -1 -1 -1 -1 -1 -1 -1
 MicOpt= -1 -1 -1 -1 -1 -1 -1 -1 -1 -1 -1 -1 -1 -1 -1 -1 -1 -1 -1 -1
 MicOpt= -1 -1 -1 -1 -1 -1 -1 -1 -1 -1 -1 -1 -1 -1 -1 -1 -1
 NAtoms=    157 NQM=      157 NQMF=       0 NMMI=      0 NMMIF=      0
                NMic=       0 NMicF=      0.
                    Isotopes and Nuclear Properties:
 (Nuclear quadrupole moments (NQMom) in fm**2, nuclear magnetic moments (NMagM)
  in nuclear magnetons)

  Atom         1           2           3           4           5           6           7           8           9          10
 IAtWgt=          12          12          12          12          12          12          12           1          12          12
 AtmWgt=  12.0000000  12.0000000  12.0000000  12.0000000  12.0000000  12.0000000  12.0000000   1.0078250  12.0000000  12.0000000
 NucSpn=           0           0           0           0           0           0           0           1           0           0
 AtZEff=  -0.0000000  -0.0000000  -0.0000000  -0.0000000  -0.0000000  -0.0000000  -0.0000000  -0.0000000  -0.0000000  -0.0000000
 NQMom=    0.0000000   0.0000000   0.0000000   0.0000000   0.0000000   0.0000000   0.0000000   0.0000000   0.0000000   0.0000000
 NMagM=    0.0000000   0.0000000   0.0000000   0.0000000   0.0000000   0.0000000   0.0000000   2.7928460   0.0000000   0.0000000
 AtZNuc=   6.0000000   6.0000000   6.0000000   6.0000000   6.0000000   6.0000000   6.0000000   1.0000000   6.0000000   6.0000000

  Atom        11          12          13          14          15          16          17          18          19          20
 IAtWgt=           1          12          12           1           1          12           1           1          12          12
 AtmWgt=   1.0078250  12.0000000  12.0000000   1.0078250   1.0078250  12.0000000   1.0078250   1.0078250  12.0000000  12.0000000
 NucSpn=           1           0           0           1           1           0           1           1           0           0
 AtZEff=  -0.0000000  -0.0000000  -0.0000000  -0.0000000  -0.0000000  -0.0000000  -0.0000000  -0.0000000  -0.0000000  -0.0000000
 NQMom=    0.0000000   0.0000000   0.0000000   0.0000000   0.0000000   0.0000000   0.0000000   0.0000000   0.0000000   0.0000000
 NMagM=    2.7928460   0.0000000   0.0000000   2.7928460   2.7928460   0.0000000   2.7928460   2.7928460   0.0000000   0.0000000
 AtZNuc=   1.0000000   6.0000000   6.0000000   1.0000000   1.0000000   6.0000000   1.0000000   1.0000000   6.0000000   6.0000000

  Atom        21          22          23          24          25          26          27          28          29          30
 IAtWgt=          12          12          12          12           1           1          12          12          14          12
 AtmWgt=  12.0000000  12.0000000  12.0000000  12.0000000   1.0078250   1.0078250  12.0000000  12.0000000  14.0030740  12.0000000
 NucSpn=           0           0           0           0           1           1           0           0           2           0
 AtZEff=  -0.0000000  -0.0000000  -0.0000000  -0.0000000  -0.0000000  -0.0000000  -0.0000000  -0.0000000  -0.0000000  -0.0000000
 NQMom=    0.0000000   0.0000000   0.0000000   0.0000000   0.0000000   0.0000000   0.0000000   0.0000000   2.0440000   0.0000000
 NMagM=    0.0000000   0.0000000   0.0000000   0.0000000   2.7928460   2.7928460   0.0000000   0.0000000   0.4037610   0.0000000
 AtZNuc=   6.0000000   6.0000000   6.0000000   6.0000000   1.0000000   1.0000000   6.0000000   6.0000000   7.0000000   6.0000000

  Atom        31          32          33          34          35          36          37          38          39          40
 IAtWgt=          12          12          12           1          12           1          12           1           1           1
 AtmWgt=  12.0000000  12.0000000  12.0000000   1.0078250  12.0000000   1.0078250  12.0000000   1.0078250   1.0078250   1.0078250
 NucSpn=           0           0           0           1           0           1           0           1           1           1
 AtZEff=  -0.0000000  -0.0000000  -0.0000000  -0.0000000  -0.0000000  -0.0000000  -0.0000000  -0.0000000  -0.0000000  -0.0000000
 NQMom=    0.0000000   0.0000000   0.0000000   0.0000000   0.0000000   0.0000000   0.0000000   0.0000000   0.0000000   0.0000000
 NMagM=    0.0000000   0.0000000   0.0000000   2.7928460   0.0000000   2.7928460   0.0000000   2.7928460   2.7928460   2.7928460
 AtZNuc=   6.0000000   6.0000000   6.0000000   1.0000000   6.0000000   1.0000000   6.0000000   1.0000000   1.0000000   1.0000000

  Atom        41          42          43          44          45          46          47          48          49          50
 IAtWgt=          16          16          12           1           1           1          12           1           1           1
 AtmWgt=  15.9949146  15.9949146  12.0000000   1.0078250   1.0078250   1.0078250  12.0000000   1.0078250   1.0078250   1.0078250
 NucSpn=           0           0           0           1           1           1           0           1           1           1
 AtZEff=  -0.0000000  -0.0000000  -0.0000000  -0.0000000  -0.0000000  -0.0000000  -0.0000000  -0.0000000  -0.0000000  -0.0000000
 NQMom=    0.0000000   0.0000000   0.0000000   0.0000000   0.0000000   0.0000000   0.0000000   0.0000000   0.0000000   0.0000000
 NMagM=    0.0000000   0.0000000   0.0000000   2.7928460   2.7928460   2.7928460   0.0000000   2.7928460   2.7928460   2.7928460
 AtZNuc=   8.0000000   8.0000000   6.0000000   1.0000000   1.0000000   1.0000000   6.0000000   1.0000000   1.0000000   1.0000000

  Atom        51          52          53          54          55          56          57          58          59          60
 IAtWgt=          12           1           1           1          12           1           1           1          12           1
 AtmWgt=  12.0000000   1.0078250   1.0078250   1.0078250  12.0000000   1.0078250   1.0078250   1.0078250  12.0000000   1.0078250
 NucSpn=           0           1           1           1           0           1           1           1           0           1
 AtZEff=  -0.0000000  -0.0000000  -0.0000000  -0.0000000  -0.0000000  -0.0000000  -0.0000000  -0.0000000  -0.0000000  -0.0000000
 NQMom=    0.0000000   0.0000000   0.0000000   0.0000000   0.0000000   0.0000000   0.0000000   0.0000000   0.0000000   0.0000000
 NMagM=    0.0000000   2.7928460   2.7928460   2.7928460   0.0000000   2.7928460   2.7928460   2.7928460   0.0000000   2.7928460
 AtZNuc=   6.0000000   1.0000000   1.0000000   1.0000000   6.0000000   1.0000000   1.0000000   1.0000000   6.0000000   1.0000000

  Atom        61          62          63          64          65          66          67          68          69          70
 IAtWgt=           1           1          12           1           1           1          32          14          12          12
 AtmWgt=   1.0078250   1.0078250  12.0000000   1.0078250   1.0078250   1.0078250  31.9720718  14.0030740  12.0000000  12.0000000
 NucSpn=           1           1           0           1           1           1           0           2           0           0
 AtZEff=  -0.0000000  -0.0000000  -0.0000000  -0.0000000  -0.0000000  -0.0000000  -0.0000000  -0.0000000  -0.0000000  -0.0000000
 NQMom=    0.0000000   0.0000000   0.0000000   0.0000000   0.0000000   0.0000000   0.0000000   2.0440000   0.0000000   0.0000000
 NMagM=    2.7928460   2.7928460   0.0000000   2.7928460   2.7928460   2.7928460   0.0000000   0.4037610   0.0000000   0.0000000
 AtZNuc=   1.0000000   1.0000000   6.0000000   1.0000000   1.0000000   1.0000000  16.0000000   7.0000000   6.0000000   6.0000000

  Atom        71          72          73          74          75          76          77          78          79          80
 IAtWgt=          12          12          12          12          12           1          12          12           1          12
 AtmWgt=  12.0000000  12.0000000  12.0000000  12.0000000  12.0000000   1.0078250  12.0000000  12.0000000   1.0078250  12.0000000
 NucSpn=           0           0           0           0           0           1           0           0           1           0
 AtZEff=  -0.0000000  -0.0000000  -0.0000000  -0.0000000  -0.0000000  -0.0000000  -0.0000000  -0.0000000  -0.0000000  -0.0000000
 NQMom=    0.0000000   0.0000000   0.0000000   0.0000000   0.0000000   0.0000000   0.0000000   0.0000000   0.0000000   0.0000000
 NMagM=    0.0000000   0.0000000   0.0000000   0.0000000   0.0000000   2.7928460   0.0000000   0.0000000   2.7928460   0.0000000
 AtZNuc=   6.0000000   6.0000000   6.0000000   6.0000000   6.0000000   1.0000000   6.0000000   6.0000000   1.0000000   6.0000000

  Atom        81          82          83          84          85          86          87          88          89          90
 IAtWgt=          12           1           1          12           1           1          12          12          12          12
 AtmWgt=  12.0000000   1.0078250   1.0078250  12.0000000   1.0078250   1.0078250  12.0000000  12.0000000  12.0000000  12.0000000
 NucSpn=           0           1           1           0           1           1           0           0           0           0
 AtZEff=  -0.0000000  -0.0000000  -0.0000000  -0.0000000  -0.0000000  -0.0000000  -0.0000000  -0.0000000  -0.0000000  -0.0000000
 NQMom=    0.0000000   0.0000000   0.0000000   0.0000000   0.0000000   0.0000000   0.0000000   0.0000000   0.0000000   0.0000000
 NMagM=    0.0000000   2.7928460   2.7928460   0.0000000   2.7928460   2.7928460   0.0000000   0.0000000   0.0000000   0.0000000
 AtZNuc=   6.0000000   1.0000000   1.0000000   6.0000000   1.0000000   1.0000000   6.0000000   6.0000000   6.0000000   6.0000000

  Atom        91          92          93          94          95          96          97          98          99         100
 IAtWgt=          12          12          12          12           1           1           1           1           1           1
 AtmWgt=  12.0000000  12.0000000  12.0000000  12.0000000   1.0078250   1.0078250   1.0078250   1.0078250   1.0078250   1.0078250
 NucSpn=           0           0           0           0           1           1           1           1           1           1
 AtZEff=  -0.0000000  -0.0000000  -0.0000000  -0.0000000  -0.0000000  -0.0000000  -0.0000000  -0.0000000  -0.0000000  -0.0000000
 NQMom=    0.0000000   0.0000000   0.0000000   0.0000000   0.0000000   0.0000000   0.0000000   0.0000000   0.0000000   0.0000000
 NMagM=    0.0000000   0.0000000   0.0000000   0.0000000   2.7928460   2.7928460   2.7928460   2.7928460   2.7928460   2.7928460
 AtZNuc=   6.0000000   6.0000000   6.0000000   6.0000000   1.0000000   1.0000000   1.0000000   1.0000000   1.0000000   1.0000000

  Atom       101         102         103         104         105         106         107         108         109         110
 IAtWgt=           1           1           1           1           1           1           1           1           1           1
 AtmWgt=   1.0078250   1.0078250   1.0078250   1.0078250   1.0078250   1.0078250   1.0078250   1.0078250   1.0078250   1.0078250
 NucSpn=           1           1           1           1           1           1           1           1           1           1
 AtZEff=  -0.0000000  -0.0000000  -0.0000000  -0.0000000  -0.0000000  -0.0000000  -0.0000000  -0.0000000  -0.0000000  -0.0000000
 NQMom=    0.0000000   0.0000000   0.0000000   0.0000000   0.0000000   0.0000000   0.0000000   0.0000000   0.0000000   0.0000000
 NMagM=    2.7928460   2.7928460   2.7928460   2.7928460   2.7928460   2.7928460   2.7928460   2.7928460   2.7928460   2.7928460
 AtZNuc=   1.0000000   1.0000000   1.0000000   1.0000000   1.0000000   1.0000000   1.0000000   1.0000000   1.0000000   1.0000000

  Atom       111         112         113         114         115         116         117         118         119         120
 IAtWgt=           1           1          14          12          12          12          12          12          12          12
 AtmWgt=   1.0078250   1.0078250  14.0030740  12.0000000  12.0000000  12.0000000  12.0000000  12.0000000  12.0000000  12.0000000
 NucSpn=           1           1           2           0           0           0           0           0           0           0
 AtZEff=  -0.0000000  -0.0000000  -0.0000000  -0.0000000  -0.0000000  -0.0000000  -0.0000000  -0.0000000  -0.0000000  -0.0000000
 NQMom=    0.0000000   0.0000000   2.0440000   0.0000000   0.0000000   0.0000000   0.0000000   0.0000000   0.0000000   0.0000000
 NMagM=    2.7928460   2.7928460   0.4037610   0.0000000   0.0000000   0.0000000   0.0000000   0.0000000   0.0000000   0.0000000
 AtZNuc=   1.0000000   1.0000000   7.0000000   6.0000000   6.0000000   6.0000000   6.0000000   6.0000000   6.0000000   6.0000000

  Atom       121         122         123         124         125         126         127         128         129         130
 IAtWgt=           1          12          12           1          12          12           1           1          12           1
 AtmWgt=   1.0078250  12.0000000  12.0000000   1.0078250  12.0000000  12.0000000   1.0078250   1.0078250  12.0000000   1.0078250
 NucSpn=           1           0           0           1           0           0           1           1           0           1
 AtZEff=  -0.0000000  -0.0000000  -0.0000000  -0.0000000  -0.0000000  -0.0000000  -0.0000000  -0.0000000  -0.0000000  -0.0000000
 NQMom=    0.0000000   0.0000000   0.0000000   0.0000000   0.0000000   0.0000000   0.0000000   0.0000000   0.0000000   0.0000000
 NMagM=    2.7928460   0.0000000   0.0000000   2.7928460   0.0000000   0.0000000   2.7928460   2.7928460   0.0000000   2.7928460
 AtZNuc=   1.0000000   6.0000000   6.0000000   1.0000000   6.0000000   6.0000000   1.0000000   1.0000000   6.0000000   1.0000000

  Atom       131         132         133         134         135         136         137         138         139         140
 IAtWgt=           1          12          12          12          12          12          12          12          12           1
 AtmWgt=   1.0078250  12.0000000  12.0000000  12.0000000  12.0000000  12.0000000  12.0000000  12.0000000  12.0000000   1.0078250
 NucSpn=           1           0           0           0           0           0           0           0           0           1
 AtZEff=  -0.0000000  -0.0000000  -0.0000000  -0.0000000  -0.0000000  -0.0000000  -0.0000000  -0.0000000  -0.0000000  -0.0000000
 NQMom=    0.0000000   0.0000000   0.0000000   0.0000000   0.0000000   0.0000000   0.0000000   0.0000000   0.0000000   0.0000000
 NMagM=    2.7928460   0.0000000   0.0000000   0.0000000   0.0000000   0.0000000   0.0000000   0.0000000   0.0000000   2.7928460
 AtZNuc=   1.0000000   6.0000000   6.0000000   6.0000000   6.0000000   6.0000000   6.0000000   6.0000000   6.0000000   1.0000000

  Atom       141         142         143         144         145         146         147         148         149         150
 IAtWgt=           1           1           1           1           1           1           1           1           1           1
 AtmWgt=   1.0078250   1.0078250   1.0078250   1.0078250   1.0078250   1.0078250   1.0078250   1.0078250   1.0078250   1.0078250
 NucSpn=           1           1           1           1           1           1           1           1           1           1
 AtZEff=  -0.0000000  -0.0000000  -0.0000000  -0.0000000  -0.0000000  -0.0000000  -0.0000000  -0.0000000  -0.0000000  -0.0000000
 NQMom=    0.0000000   0.0000000   0.0000000   0.0000000   0.0000000   0.0000000   0.0000000   0.0000000   0.0000000   0.0000000
 NMagM=    2.7928460   2.7928460   2.7928460   2.7928460   2.7928460   2.7928460   2.7928460   2.7928460   2.7928460   2.7928460
 AtZNuc=   1.0000000   1.0000000   1.0000000   1.0000000   1.0000000   1.0000000   1.0000000   1.0000000   1.0000000   1.0000000

  Atom       151         152         153         154         155         156         157
 IAtWgt=           1           1           1           1           1           1           1
 AtmWgt=   1.0078250   1.0078250   1.0078250   1.0078250   1.0078250   1.0078250   1.0078250
 NucSpn=           1           1           1           1           1           1           1
 AtZEff=  -0.0000000  -0.0000000  -0.0000000  -0.0000000  -0.0000000  -0.0000000  -0.0000000
 NQMom=    0.0000000   0.0000000   0.0000000   0.0000000   0.0000000   0.0000000   0.0000000
 NMagM=    2.7928460   2.7928460   2.7928460   2.7928460   2.7928460   2.7928460   2.7928460
 AtZNuc=   1.0000000   1.0000000   1.0000000   1.0000000   1.0000000   1.0000000   1.0000000
 Leave Link  101 at Sun Nov  3 23:24:02 2024, MaxMem=  2147483648 cpu:               6.2 elap:               1.0
 (Enter /apps/gaussian/g16/l103.exe)

 GradGradGradGradGradGradGradGradGradGradGradGradGradGradGradGradGradGrad
 Berny optimization.
 Initialization pass.
                           ----------------------------
                           !    Initial Parameters    !
                           ! (Angstroms and Degrees)  !
 --------------------------                            --------------------------
 ! Name  Definition              Value          Derivative Info.                !
 --------------------------------------------------------------------------------
 ! R1    R(1,3)                  1.3889         estimate D2E/DX2                !
 ! R2    R(1,4)                  1.4093         estimate D2E/DX2                !
 ! R3    R(1,29)                 1.4016         estimate D2E/DX2                !
 ! R4    R(2,5)                  1.389          estimate D2E/DX2                !
 ! R5    R(2,6)                  1.4093         estimate D2E/DX2                !
 ! R6    R(2,29)                 1.4015         estimate D2E/DX2                !
 ! R7    R(3,7)                  1.3931         estimate D2E/DX2                !
 ! R8    R(3,8)                  1.083          estimate D2E/DX2                !
 ! R9    R(4,6)                  1.4495         estimate D2E/DX2                !
 ! R10   R(4,9)                  1.3926         estimate D2E/DX2                !
 ! R11   R(5,10)                 1.3932         estimate D2E/DX2                !
 ! R12   R(5,11)                 1.083          estimate D2E/DX2                !
 ! R13   R(6,12)                 1.3927         estimate D2E/DX2                !
 ! R14   R(7,13)                 1.407          estimate D2E/DX2                !
 ! R15   R(7,14)                 1.0825         estimate D2E/DX2                !
 ! R16   R(9,13)                 1.3999         estimate D2E/DX2                !
 ! R17   R(9,15)                 1.0855         estimate D2E/DX2                !
 ! R18   R(10,16)                1.4069         estimate D2E/DX2                !
 ! R19   R(10,17)                1.0826         estimate D2E/DX2                !
 ! R20   R(12,16)                1.4001         estimate D2E/DX2                !
 ! R21   R(12,18)                1.0854         estimate D2E/DX2                !
 ! R22   R(13,27)                1.539          estimate D2E/DX2                !
 ! R23   R(16,28)                1.5391         estimate D2E/DX2                !
 ! R24   R(19,20)                1.4189         estimate D2E/DX2                !
 ! R25   R(19,24)                1.4176         estimate D2E/DX2                !
 ! R26   R(19,29)                1.4043         estimate D2E/DX2                !
 ! R27   R(20,21)                1.3948         estimate D2E/DX2                !
 ! R28   R(20,113)               1.409          estimate D2E/DX2                !
 ! R29   R(21,22)                1.3889         estimate D2E/DX2                !
 ! R30   R(21,25)                1.0831         estimate D2E/DX2                !
 ! R31   R(22,23)                1.3875         estimate D2E/DX2                !
 ! R32   R(22,67)                1.7982         estimate D2E/DX2                !
 ! R33   R(23,24)                1.3971         estimate D2E/DX2                !
 ! R34   R(23,26)                1.0832         estimate D2E/DX2                !
 ! R35   R(24,68)                1.4096         estimate D2E/DX2                !
 ! R36   R(27,43)                1.5453         estimate D2E/DX2                !
 ! R37   R(27,47)                1.546          estimate D2E/DX2                !
 ! R38   R(27,51)                1.5394         estimate D2E/DX2                !
 ! R39   R(28,55)                1.5394         estimate D2E/DX2                !
 ! R40   R(28,59)                1.5458         estimate D2E/DX2                !
 ! R41   R(28,63)                1.5452         estimate D2E/DX2                !
 ! R42   R(30,31)                1.3948         estimate D2E/DX2                !
 ! R43   R(30,32)                1.3947         estimate D2E/DX2                !
 ! R44   R(30,67)                1.7964         estimate D2E/DX2                !
 ! R45   R(31,33)                1.394          estimate D2E/DX2                !
 ! R46   R(31,34)                1.0837         estimate D2E/DX2                !
 ! R47   R(32,35)                1.3934         estimate D2E/DX2                !
 ! R48   R(32,36)                1.0837         estimate D2E/DX2                !
 ! R49   R(33,37)                1.3956         estimate D2E/DX2                !
 ! R50   R(33,38)                1.0844         estimate D2E/DX2                !
 ! R51   R(35,37)                1.396          estimate D2E/DX2                !
 ! R52   R(35,39)                1.0843         estimate D2E/DX2                !
 ! R53   R(37,40)                1.0847         estimate D2E/DX2                !
 ! R54   R(41,67)                1.4643         estimate D2E/DX2                !
 ! R55   R(42,67)                1.4641         estimate D2E/DX2                !
 ! R56   R(43,44)                1.0953         estimate D2E/DX2                !
 ! R57   R(43,45)                1.0936         estimate D2E/DX2                !
 ! R58   R(43,46)                1.0941         estimate D2E/DX2                !
 ! R59   R(47,48)                1.0954         estimate D2E/DX2                !
 ! R60   R(47,49)                1.0941         estimate D2E/DX2                !
 ! R61   R(47,50)                1.0936         estimate D2E/DX2                !
 ! R62   R(51,52)                1.0945         estimate D2E/DX2                !
 ! R63   R(51,53)                1.094          estimate D2E/DX2                !
 ! R64   R(51,54)                1.0943         estimate D2E/DX2                !
 ! R65   R(55,56)                1.0946         estimate D2E/DX2                !
 ! R66   R(55,57)                1.094          estimate D2E/DX2                !
 ! R67   R(55,58)                1.0943         estimate D2E/DX2                !
 ! R68   R(59,60)                1.0935         estimate D2E/DX2                !
 ! R69   R(59,61)                1.0954         estimate D2E/DX2                !
 ! R70   R(59,62)                1.0939         estimate D2E/DX2                !
 ! R71   R(63,64)                1.0954         estimate D2E/DX2                !
 ! R72   R(63,65)                1.0934         estimate D2E/DX2                !
 ! R73   R(63,66)                1.0941         estimate D2E/DX2                !
 ! R74   R(68,69)                1.4002         estimate D2E/DX2                !
 ! R75   R(68,70)                1.4034         estimate D2E/DX2                !
 ! R76   R(69,71)                1.3925         estimate D2E/DX2                !
 ! R77   R(69,72)                1.4068         estimate D2E/DX2                !
 ! R78   R(70,73)                1.3913         estimate D2E/DX2                !
 ! R79   R(70,74)                1.4114         estimate D2E/DX2                !
 ! R80   R(71,75)                1.3877         estimate D2E/DX2                !
 ! R81   R(71,76)                1.0828         estimate D2E/DX2                !
 ! R82   R(72,74)                1.4493         estimate D2E/DX2                !
 ! R83   R(72,77)                1.3981         estimate D2E/DX2                !
 ! R84   R(73,78)                1.3945         estimate D2E/DX2                !
 ! R85   R(73,79)                1.0841         estimate D2E/DX2                !
 ! R86   R(74,80)                1.3934         estimate D2E/DX2                !
 ! R87   R(75,81)                1.4128         estimate D2E/DX2                !
 ! R88   R(75,82)                1.0848         estimate D2E/DX2                !
 ! R89   R(77,81)                1.3946         estimate D2E/DX2                !
 ! R90   R(77,83)                1.0833         estimate D2E/DX2                !
 ! R91   R(78,84)                1.4076         estimate D2E/DX2                !
 ! R92   R(78,85)                1.0829         estimate D2E/DX2                !
 ! R93   R(80,84)                1.3999         estimate D2E/DX2                !
 ! R94   R(80,86)                1.0854         estimate D2E/DX2                !
 ! R95   R(81,87)                1.5379         estimate D2E/DX2                !
 ! R96   R(84,88)                1.5397         estimate D2E/DX2                !
 ! R97   R(87,89)                1.5452         estimate D2E/DX2                !
 ! R98   R(87,90)                1.5461         estimate D2E/DX2                !
 ! R99   R(87,91)                1.5392         estimate D2E/DX2                !
 ! R100  R(88,92)                1.5457         estimate D2E/DX2                !
 ! R101  R(88,93)                1.5455         estimate D2E/DX2                !
 ! R102  R(88,94)                1.5395         estimate D2E/DX2                !
 ! R103  R(89,95)                1.0935         estimate D2E/DX2                !
 ! R104  R(89,96)                1.0953         estimate D2E/DX2                !
 ! R105  R(89,97)                1.0941         estimate D2E/DX2                !
 ! R106  R(90,98)                1.093          estimate D2E/DX2                !
 ! R107  R(90,99)                1.0939         estimate D2E/DX2                !
 ! R108  R(90,100)               1.0955         estimate D2E/DX2                !
 ! R109  R(91,101)               1.0945         estimate D2E/DX2                !
 ! R110  R(91,102)               1.0946         estimate D2E/DX2                !
 ! R111  R(91,103)               1.0942         estimate D2E/DX2                !
 ! R112  R(92,104)               1.0953         estimate D2E/DX2                !
 ! R113  R(92,105)               1.0936         estimate D2E/DX2                !
 ! R114  R(92,106)               1.0941         estimate D2E/DX2                !
 ! R115  R(93,107)               1.0935         estimate D2E/DX2                !
 ! R116  R(93,108)               1.0953         estimate D2E/DX2                !
 ! R117  R(93,109)               1.094          estimate D2E/DX2                !
 ! R118  R(94,110)               1.0945         estimate D2E/DX2                !
 ! R119  R(94,111)               1.0944         estimate D2E/DX2                !
 ! R120  R(94,112)               1.0942         estimate D2E/DX2                !
 ! R121  R(113,114)              1.4022         estimate D2E/DX2                !
 ! R122  R(113,115)              1.4006         estimate D2E/DX2                !
 ! R123  R(114,116)              1.3912         estimate D2E/DX2                !
 ! R124  R(114,117)              1.4114         estimate D2E/DX2                !
 ! R125  R(115,118)              1.3889         estimate D2E/DX2                !
 ! R126  R(115,119)              1.4096         estimate D2E/DX2                !
 ! R127  R(116,120)              1.3948         estimate D2E/DX2                !
 ! R128  R(116,121)              1.0843         estimate D2E/DX2                !
 ! R129  R(117,119)              1.4505         estimate D2E/DX2                !
 ! R130  R(117,122)              1.3929         estimate D2E/DX2                !
 ! R131  R(118,123)              1.3919         estimate D2E/DX2                !
 ! R132  R(118,124)              1.0828         estimate D2E/DX2                !
 ! R133  R(119,125)              1.3939         estimate D2E/DX2                !
 ! R134  R(120,126)              1.4072         estimate D2E/DX2                !
 ! R135  R(120,127)              1.0831         estimate D2E/DX2                !
 ! R136  R(122,126)              1.4005         estimate D2E/DX2                !
 ! R137  R(122,128)              1.0854         estimate D2E/DX2                !
 ! R138  R(123,129)              1.408          estimate D2E/DX2                !
 ! R139  R(123,130)              1.0825         estimate D2E/DX2                !
 ! R140  R(125,129)              1.3993         estimate D2E/DX2                !
 ! R141  R(125,131)              1.0854         estimate D2E/DX2                !
 ! R142  R(126,132)              1.5396         estimate D2E/DX2                !
 ! R143  R(129,133)              1.5392         estimate D2E/DX2                !
 ! R144  R(132,134)              1.5456         estimate D2E/DX2                !
 ! R145  R(132,135)              1.5456         estimate D2E/DX2                !
 ! R146  R(132,136)              1.5395         estimate D2E/DX2                !
 ! R147  R(133,137)              1.5395         estimate D2E/DX2                !
 ! R148  R(133,138)              1.5459         estimate D2E/DX2                !
 ! R149  R(133,139)              1.5451         estimate D2E/DX2                !
 ! R150  R(134,140)              1.0953         estimate D2E/DX2                !
 ! R151  R(134,141)              1.0935         estimate D2E/DX2                !
 ! R152  R(134,142)              1.094          estimate D2E/DX2                !
 ! R153  R(135,143)              1.094          estimate D2E/DX2                !
 ! R154  R(135,144)              1.0934         estimate D2E/DX2                !
 ! R155  R(135,145)              1.0953         estimate D2E/DX2                !
 ! R156  R(136,146)              1.0946         estimate D2E/DX2                !
 ! R157  R(136,147)              1.0945         estimate D2E/DX2                !
 ! R158  R(136,148)              1.0941         estimate D2E/DX2                !
 ! R159  R(137,149)              1.0945         estimate D2E/DX2                !
 ! R160  R(137,150)              1.0942         estimate D2E/DX2                !
 ! R161  R(137,151)              1.0943         estimate D2E/DX2                !
 ! R162  R(138,152)              1.0935         estimate D2E/DX2                !
 ! R163  R(138,153)              1.0955         estimate D2E/DX2                !
 ! R164  R(138,154)              1.0939         estimate D2E/DX2                !
 ! R165  R(139,155)              1.0936         estimate D2E/DX2                !
 ! R166  R(139,156)              1.094          estimate D2E/DX2                !
 ! R167  R(139,157)              1.0953         estimate D2E/DX2                !
 ! A1    A(3,1,4)              121.0191         estimate D2E/DX2                !
 ! A2    A(3,1,29)             129.9032         estimate D2E/DX2                !
 ! A3    A(4,1,29)             109.0218         estimate D2E/DX2                !
 ! A4    A(5,2,6)              120.9859         estimate D2E/DX2                !
 ! A5    A(5,2,29)             129.8875         estimate D2E/DX2                !
 ! A6    A(6,2,29)             109.0578         estimate D2E/DX2                !
 ! A7    A(1,3,7)              117.9399         estimate D2E/DX2                !
 ! A8    A(1,3,8)              121.8899         estimate D2E/DX2                !
 ! A9    A(7,3,8)              120.1648         estimate D2E/DX2                !
 ! A10   A(1,4,6)              106.9303         estimate D2E/DX2                !
 ! A11   A(1,4,9)              119.7372         estimate D2E/DX2                !
 ! A12   A(6,4,9)              133.3309         estimate D2E/DX2                !
 ! A13   A(2,5,10)             117.9777         estimate D2E/DX2                !
 ! A14   A(2,5,11)             121.8594         estimate D2E/DX2                !
 ! A15   A(10,5,11)            120.1593         estimate D2E/DX2                !
 ! A16   A(2,6,4)              106.8822         estimate D2E/DX2                !
 ! A17   A(2,6,12)             119.7397         estimate D2E/DX2                !
 ! A18   A(4,6,12)             133.3745         estimate D2E/DX2                !
 ! A19   A(3,7,13)             122.6842         estimate D2E/DX2                !
 ! A20   A(3,7,14)             117.2723         estimate D2E/DX2                !
 ! A21   A(13,7,14)            120.0418         estimate D2E/DX2                !
 ! A22   A(4,9,13)             120.5882         estimate D2E/DX2                !
 ! A23   A(4,9,15)             118.9882         estimate D2E/DX2                !
 ! A24   A(13,9,15)            120.4232         estimate D2E/DX2                !
 ! A25   A(5,10,16)            122.6704         estimate D2E/DX2                !
 ! A26   A(5,10,17)            117.2945         estimate D2E/DX2                !
 ! A27   A(16,10,17)           120.0336         estimate D2E/DX2                !
 ! A28   A(6,12,16)            120.6048         estimate D2E/DX2                !
 ! A29   A(6,12,18)            118.9933         estimate D2E/DX2                !
 ! A30   A(16,12,18)           120.4018         estimate D2E/DX2                !
 ! A31   A(7,13,9)             117.9581         estimate D2E/DX2                !
 ! A32   A(7,13,27)            122.5285         estimate D2E/DX2                !
 ! A33   A(9,13,27)            119.5122         estimate D2E/DX2                !
 ! A34   A(10,16,12)           117.9445         estimate D2E/DX2                !
 ! A35   A(10,16,28)           122.519          estimate D2E/DX2                !
 ! A36   A(12,16,28)           119.5358         estimate D2E/DX2                !
 ! A37   A(20,19,24)           118.8541         estimate D2E/DX2                !
 ! A38   A(20,19,29)           120.4194         estimate D2E/DX2                !
 ! A39   A(24,19,29)           120.7264         estimate D2E/DX2                !
 ! A40   A(19,20,21)           120.2011         estimate D2E/DX2                !
 ! A41   A(19,20,113)          121.7152         estimate D2E/DX2                !
 ! A42   A(21,20,113)          118.0798         estimate D2E/DX2                !
 ! A43   A(20,21,22)           119.6449         estimate D2E/DX2                !
 ! A44   A(20,21,25)           119.4451         estimate D2E/DX2                !
 ! A45   A(22,21,25)           120.8769         estimate D2E/DX2                !
 ! A46   A(21,22,23)           121.4729         estimate D2E/DX2                !
 ! A47   A(21,22,67)           119.1169         estimate D2E/DX2                !
 ! A48   A(23,22,67)           119.3853         estimate D2E/DX2                !
 ! A49   A(22,23,24)           119.6964         estimate D2E/DX2                !
 ! A50   A(22,23,26)           120.551          estimate D2E/DX2                !
 ! A51   A(24,23,26)           119.7509         estimate D2E/DX2                !
 ! A52   A(19,24,23)           120.1078         estimate D2E/DX2                !
 ! A53   A(19,24,68)           121.7878         estimate D2E/DX2                !
 ! A54   A(23,24,68)           118.1032         estimate D2E/DX2                !
 ! A55   A(13,27,43)           109.6427         estimate D2E/DX2                !
 ! A56   A(13,27,47)           109.0897         estimate D2E/DX2                !
 ! A57   A(13,27,51)           112.3842         estimate D2E/DX2                !
 ! A58   A(43,27,47)           109.5385         estimate D2E/DX2                !
 ! A59   A(43,27,51)           108.1002         estimate D2E/DX2                !
 ! A60   A(47,27,51)           108.0403         estimate D2E/DX2                !
 ! A61   A(16,28,55)           112.3825         estimate D2E/DX2                !
 ! A62   A(16,28,59)           109.11           estimate D2E/DX2                !
 ! A63   A(16,28,63)           109.663          estimate D2E/DX2                !
 ! A64   A(55,28,59)           108.0265         estimate D2E/DX2                !
 ! A65   A(55,28,63)           108.0909         estimate D2E/DX2                !
 ! A66   A(59,28,63)           109.5212         estimate D2E/DX2                !
 ! A67   A(1,29,2)             108.1031         estimate D2E/DX2                !
 ! A68   A(1,29,19)            126.156          estimate D2E/DX2                !
 ! A69   A(2,29,19)            125.7409         estimate D2E/DX2                !
 ! A70   A(31,30,32)           121.7248         estimate D2E/DX2                !
 ! A71   A(31,30,67)           119.0812         estimate D2E/DX2                !
 ! A72   A(32,30,67)           119.1785         estimate D2E/DX2                !
 ! A73   A(30,31,33)           118.8413         estimate D2E/DX2                !
 ! A74   A(30,31,34)           119.9176         estimate D2E/DX2                !
 ! A75   A(33,31,34)           121.2307         estimate D2E/DX2                !
 ! A76   A(30,32,35)           118.8502         estimate D2E/DX2                !
 ! A77   A(30,32,36)           120.0278         estimate D2E/DX2                !
 ! A78   A(35,32,36)           121.1149         estimate D2E/DX2                !
 ! A79   A(31,33,37)           120.0881         estimate D2E/DX2                !
 ! A80   A(31,33,38)           119.7083         estimate D2E/DX2                !
 ! A81   A(37,33,38)           120.2023         estimate D2E/DX2                !
 ! A82   A(32,35,37)           120.1028         estimate D2E/DX2                !
 ! A83   A(32,35,39)           119.7254         estimate D2E/DX2                !
 ! A84   A(37,35,39)           120.1712         estimate D2E/DX2                !
 ! A85   A(33,37,35)           120.3897         estimate D2E/DX2                !
 ! A86   A(33,37,40)           119.8145         estimate D2E/DX2                !
 ! A87   A(35,37,40)           119.7945         estimate D2E/DX2                !
 ! A88   A(27,43,44)           110.4917         estimate D2E/DX2                !
 ! A89   A(27,43,45)           111.8701         estimate D2E/DX2                !
 ! A90   A(27,43,46)           110.7506         estimate D2E/DX2                !
 ! A91   A(44,43,45)           107.6275         estimate D2E/DX2                !
 ! A92   A(44,43,46)           108.1613         estimate D2E/DX2                !
 ! A93   A(45,43,46)           107.7933         estimate D2E/DX2                !
 ! A94   A(27,47,48)           110.5344         estimate D2E/DX2                !
 ! A95   A(27,47,49)           110.6777         estimate D2E/DX2                !
 ! A96   A(27,47,50)           111.7495         estimate D2E/DX2                !
 ! A97   A(48,47,49)           108.3128         estimate D2E/DX2                !
 ! A98   A(48,47,50)           107.6994         estimate D2E/DX2                !
 ! A99   A(49,47,50)           107.7307         estimate D2E/DX2                !
 ! A100  A(27,51,52)           111.8157         estimate D2E/DX2                !
 ! A101  A(27,51,53)           111.7472         estimate D2E/DX2                !
 ! A102  A(27,51,54)           109.6618         estimate D2E/DX2                !
 ! A103  A(52,51,53)           108.406          estimate D2E/DX2                !
 ! A104  A(52,51,54)           107.4778         estimate D2E/DX2                !
 ! A105  A(53,51,54)           107.5491         estimate D2E/DX2                !
 ! A106  A(28,55,56)           111.8271         estimate D2E/DX2                !
 ! A107  A(28,55,57)           111.7238         estimate D2E/DX2                !
 ! A108  A(28,55,58)           109.6585         estimate D2E/DX2                !
 ! A109  A(56,55,57)           108.419          estimate D2E/DX2                !
 ! A110  A(56,55,58)           107.4761         estimate D2E/DX2                !
 ! A111  A(57,55,58)           107.5539         estimate D2E/DX2                !
 ! A112  A(28,59,60)           111.7554         estimate D2E/DX2                !
 ! A113  A(28,59,61)           110.5251         estimate D2E/DX2                !
 ! A114  A(28,59,62)           110.6852         estimate D2E/DX2                !
 ! A115  A(60,59,61)           107.714          estimate D2E/DX2                !
 ! A116  A(60,59,62)           107.7036         estimate D2E/DX2                !
 ! A117  A(61,59,62)           108.3213         estimate D2E/DX2                !
 ! A118  A(28,63,64)           110.4796         estimate D2E/DX2                !
 ! A119  A(28,63,65)           111.8751         estimate D2E/DX2                !
 ! A120  A(28,63,66)           110.7642         estimate D2E/DX2                !
 ! A121  A(64,63,65)           107.6409         estimate D2E/DX2                !
 ! A122  A(64,63,66)           108.1541         estimate D2E/DX2                !
 ! A123  A(65,63,66)           107.7802         estimate D2E/DX2                !
 ! A124  A(22,67,30)           102.4314         estimate D2E/DX2                !
 ! A125  A(22,67,41)           107.3205         estimate D2E/DX2                !
 ! A126  A(22,67,42)           107.599          estimate D2E/DX2                !
 ! A127  A(30,67,41)           108.2227         estimate D2E/DX2                !
 ! A128  A(30,67,42)           107.8005         estimate D2E/DX2                !
 ! A129  A(41,67,42)           121.7984         estimate D2E/DX2                !
 ! A130  A(24,68,69)           126.9826         estimate D2E/DX2                !
 ! A131  A(24,68,70)           124.0655         estimate D2E/DX2                !
 ! A132  A(69,68,70)           108.0245         estimate D2E/DX2                !
 ! A133  A(68,69,71)           129.7104         estimate D2E/DX2                !
 ! A134  A(68,69,72)           109.234          estimate D2E/DX2                !
 ! A135  A(71,69,72)           121.0168         estimate D2E/DX2                !
 ! A136  A(68,70,73)           130.0041         estimate D2E/DX2                !
 ! A137  A(68,70,74)           108.9365         estimate D2E/DX2                !
 ! A138  A(73,70,74)           121.0168         estimate D2E/DX2                !
 ! A139  A(69,71,75)           117.7061         estimate D2E/DX2                !
 ! A140  A(69,71,76)           121.777          estimate D2E/DX2                !
 ! A141  A(75,71,76)           120.5073         estimate D2E/DX2                !
 ! A142  A(69,72,74)           106.9069         estimate D2E/DX2                !
 ! A143  A(69,72,77)           119.9515         estimate D2E/DX2                !
 ! A144  A(74,72,77)           133.1411         estimate D2E/DX2                !
 ! A145  A(70,73,78)           117.876          estimate D2E/DX2                !
 ! A146  A(70,73,79)           121.8769         estimate D2E/DX2                !
 ! A147  A(78,73,79)           120.2469         estimate D2E/DX2                !
 ! A148  A(70,74,72)           106.888          estimate D2E/DX2                !
 ! A149  A(70,74,80)           119.7193         estimate D2E/DX2                !
 ! A150  A(72,74,80)           133.3802         estimate D2E/DX2                !
 ! A151  A(71,75,81)           122.9212         estimate D2E/DX2                !
 ! A152  A(71,75,82)           117.5794         estimate D2E/DX2                !
 ! A153  A(81,75,82)           119.4972         estimate D2E/DX2                !
 ! A154  A(72,77,81)           120.2669         estimate D2E/DX2                !
 ! A155  A(72,77,83)           118.8488         estimate D2E/DX2                !
 ! A156  A(81,77,83)           120.8821         estimate D2E/DX2                !
 ! A157  A(73,78,84)           122.7689         estimate D2E/DX2                !
 ! A158  A(73,78,85)           117.389          estimate D2E/DX2                !
 ! A159  A(84,78,85)           119.842          estimate D2E/DX2                !
 ! A160  A(74,80,84)           120.6698         estimate D2E/DX2                !
 ! A161  A(74,80,86)           118.941          estimate D2E/DX2                !
 ! A162  A(84,80,86)           120.3873         estimate D2E/DX2                !
 ! A163  A(75,81,77)           118.0286         estimate D2E/DX2                !
 ! A164  A(75,81,87)           119.2769         estimate D2E/DX2                !
 ! A165  A(77,81,87)           122.6908         estimate D2E/DX2                !
 ! A166  A(78,84,80)           117.9456         estimate D2E/DX2                !
 ! A167  A(78,84,88)           122.5246         estimate D2E/DX2                !
 ! A168  A(80,84,88)           119.5293         estimate D2E/DX2                !
 ! A169  A(81,87,89)           109.7989         estimate D2E/DX2                !
 ! A170  A(81,87,90)           108.9705         estimate D2E/DX2                !
 ! A171  A(81,87,91)           112.2313         estimate D2E/DX2                !
 ! A172  A(89,87,90)           109.5684         estimate D2E/DX2                !
 ! A173  A(89,87,91)           108.0984         estimate D2E/DX2                !
 ! A174  A(90,87,91)           108.1314         estimate D2E/DX2                !
 ! A175  A(84,88,92)           109.362          estimate D2E/DX2                !
 ! A176  A(84,88,93)           109.4269         estimate D2E/DX2                !
 ! A177  A(84,88,94)           112.4055         estimate D2E/DX2                !
 ! A178  A(92,88,93)           109.4668         estimate D2E/DX2                !
 ! A179  A(92,88,94)           108.0671         estimate D2E/DX2                !
 ! A180  A(93,88,94)           108.0639         estimate D2E/DX2                !
 ! A181  A(87,89,95)           111.9044         estimate D2E/DX2                !
 ! A182  A(87,89,96)           110.4187         estimate D2E/DX2                !
 ! A183  A(87,89,97)           110.8032         estimate D2E/DX2                !
 ! A184  A(95,89,96)           107.567          estimate D2E/DX2                !
 ! A185  A(95,89,97)           107.7949         estimate D2E/DX2                !
 ! A186  A(96,89,97)           108.2058         estimate D2E/DX2                !
 ! A187  A(87,90,98)           111.7565         estimate D2E/DX2                !
 ! A188  A(87,90,99)           110.6562         estimate D2E/DX2                !
 ! A189  A(87,90,100)          110.4837         estimate D2E/DX2                !
 ! A190  A(98,90,99)           107.6429         estimate D2E/DX2                !
 ! A191  A(98,90,100)          107.8242         estimate D2E/DX2                !
 ! A192  A(99,90,100)          108.3448         estimate D2E/DX2                !
 ! A193  A(87,91,101)          111.7406         estimate D2E/DX2                !
 ! A194  A(87,91,102)          111.7806         estimate D2E/DX2                !
 ! A195  A(87,91,103)          109.6995         estimate D2E/DX2                !
 ! A196  A(101,91,102)         108.4279         estimate D2E/DX2                !
 ! A197  A(101,91,103)         107.4801         estimate D2E/DX2                !
 ! A198  A(102,91,103)         107.5295         estimate D2E/DX2                !
 ! A199  A(88,92,104)          110.485          estimate D2E/DX2                !
 ! A200  A(88,92,105)          111.8138         estimate D2E/DX2                !
 ! A201  A(88,92,106)          110.7506         estimate D2E/DX2                !
 ! A202  A(104,92,105)         107.668          estimate D2E/DX2                !
 ! A203  A(104,92,106)         108.1603         estimate D2E/DX2                !
 ! A204  A(105,92,106)         107.8203         estimate D2E/DX2                !
 ! A205  A(88,93,107)          111.8284         estimate D2E/DX2                !
 ! A206  A(88,93,108)          110.4484         estimate D2E/DX2                !
 ! A207  A(88,93,109)          110.7884         estimate D2E/DX2                !
 ! A208  A(107,93,108)         107.6454         estimate D2E/DX2                !
 ! A209  A(107,93,109)         107.7666         estimate D2E/DX2                !
 ! A210  A(108,93,109)         108.2205         estimate D2E/DX2                !
 ! A211  A(88,94,110)          111.8536         estimate D2E/DX2                !
 ! A212  A(88,94,111)          111.8179         estimate D2E/DX2                !
 ! A213  A(88,94,112)          109.6372         estimate D2E/DX2                !
 ! A214  A(110,94,111)         108.4095         estimate D2E/DX2                !
 ! A215  A(110,94,112)         107.4374         estimate D2E/DX2                !
 ! A216  A(111,94,112)         107.4946         estimate D2E/DX2                !
 ! A217  A(20,113,114)         124.0375         estimate D2E/DX2                !
 ! A218  A(20,113,115)         127.0623         estimate D2E/DX2                !
 ! A219  A(114,113,115)        108.0939         estimate D2E/DX2                !
 ! A220  A(113,114,116)        129.9566         estimate D2E/DX2                !
 ! A221  A(113,114,117)        109.0218         estimate D2E/DX2                !
 ! A222  A(116,114,117)        120.9778         estimate D2E/DX2                !
 ! A223  A(113,115,118)        129.736          estimate D2E/DX2                !
 ! A224  A(113,115,119)        109.1456         estimate D2E/DX2                !
 ! A225  A(118,115,119)        121.0757         estimate D2E/DX2                !
 ! A226  A(114,116,120)        117.9312         estimate D2E/DX2                !
 ! A227  A(114,116,121)        121.7615         estimate D2E/DX2                !
 ! A228  A(120,116,121)        120.3057         estimate D2E/DX2                !
 ! A229  A(114,117,119)        106.8607         estimate D2E/DX2                !
 ! A230  A(114,117,122)        119.7085         estimate D2E/DX2                !
 ! A231  A(119,117,122)        133.4209         estimate D2E/DX2                !
 ! A232  A(115,118,123)        117.8906         estimate D2E/DX2                !
 ! A233  A(115,118,124)        121.761          estimate D2E/DX2                !
 ! A234  A(123,118,124)        120.3412         estimate D2E/DX2                !
 ! A235  A(115,119,117)        106.8666         estimate D2E/DX2                !
 ! A236  A(115,119,125)        119.7066         estimate D2E/DX2                !
 ! A237  A(117,119,125)        133.4268         estimate D2E/DX2                !
 ! A238  A(116,120,126)        122.7467         estimate D2E/DX2                !
 ! A239  A(116,120,127)        117.4051         estimate D2E/DX2                !
 ! A240  A(126,120,127)        119.8482         estimate D2E/DX2                !
 ! A241  A(117,122,126)        120.7212         estimate D2E/DX2                !
 ! A242  A(117,122,128)        118.9348         estimate D2E/DX2                !
 ! A243  A(126,122,128)        120.3426         estimate D2E/DX2                !
 ! A244  A(118,123,129)        122.7076         estimate D2E/DX2                !
 ! A245  A(118,123,130)        117.3019         estimate D2E/DX2                !
 ! A246  A(129,123,130)        119.9894         estimate D2E/DX2                !
 ! A247  A(119,125,129)        120.5099         estimate D2E/DX2                !
 ! A248  A(119,125,131)        119.0674         estimate D2E/DX2                !
 ! A249  A(129,125,131)        120.4208         estimate D2E/DX2                !
 ! A250  A(120,126,122)        117.9089         estimate D2E/DX2                !
 ! A251  A(120,126,132)        122.5683         estimate D2E/DX2                !
 ! A252  A(122,126,132)        119.5223         estimate D2E/DX2                !
 ! A253  A(123,129,125)        118.0077         estimate D2E/DX2                !
 ! A254  A(123,129,133)        122.4314         estimate D2E/DX2                !
 ! A255  A(125,129,133)        119.5592         estimate D2E/DX2                !
 ! A256  A(126,132,134)        109.3971         estimate D2E/DX2                !
 ! A257  A(126,132,135)        109.4237         estimate D2E/DX2                !
 ! A258  A(126,132,136)        112.4075         estimate D2E/DX2                !
 ! A259  A(134,132,135)        109.4701         estimate D2E/DX2                !
 ! A260  A(134,132,136)        108.047          estimate D2E/DX2                !
 ! A261  A(135,132,136)        108.0462         estimate D2E/DX2                !
 ! A262  A(129,133,137)        112.367          estimate D2E/DX2                !
 ! A263  A(129,133,138)        109.0305         estimate D2E/DX2                !
 ! A264  A(129,133,139)        109.6847         estimate D2E/DX2                !
 ! A265  A(137,133,138)        108.0328         estimate D2E/DX2                !
 ! A266  A(137,133,139)        108.1247         estimate D2E/DX2                !
 ! A267  A(138,133,139)        109.5567         estimate D2E/DX2                !
 ! A268  A(132,134,140)        110.4939         estimate D2E/DX2                !
 ! A269  A(132,134,141)        111.803          estimate D2E/DX2                !
 ! A270  A(132,134,142)        110.7519         estimate D2E/DX2                !
 ! A271  A(140,134,141)        107.6684         estimate D2E/DX2                !
 ! A272  A(140,134,142)        108.1721         estimate D2E/DX2                !
 ! A273  A(141,134,142)        107.8088         estimate D2E/DX2                !
 ! A274  A(132,135,143)        110.806          estimate D2E/DX2                !
 ! A275  A(132,135,144)        111.8204         estimate D2E/DX2                !
 ! A276  A(132,135,145)        110.462          estimate D2E/DX2                !
 ! A277  A(143,135,144)        107.7415         estimate D2E/DX2                !
 ! A278  A(143,135,145)        108.2261         estimate D2E/DX2                !
 ! A279  A(144,135,145)        107.6408         estimate D2E/DX2                !
 ! A280  A(132,136,146)        111.8501         estimate D2E/DX2                !
 ! A281  A(132,136,147)        111.7858         estimate D2E/DX2                !
 ! A282  A(132,136,148)        109.6487         estimate D2E/DX2                !
 ! A283  A(146,136,147)        108.4376         estimate D2E/DX2                !
 ! A284  A(146,136,148)        107.4405         estimate D2E/DX2                !
 ! A285  A(147,136,148)        107.4886         estimate D2E/DX2                !
 ! A286  A(133,137,149)        111.8225         estimate D2E/DX2                !
 ! A287  A(133,137,150)        111.752          estimate D2E/DX2                !
 ! A288  A(133,137,151)        109.6315         estimate D2E/DX2                !
 ! A289  A(149,137,150)        108.4296         estimate D2E/DX2                !
 ! A290  A(149,137,151)        107.4878         estimate D2E/DX2                !
 ! A291  A(150,137,151)        107.5342         estimate D2E/DX2                !
 ! A292  A(133,138,152)        111.7277         estimate D2E/DX2                !
 ! A293  A(133,138,153)        110.5117         estimate D2E/DX2                !
 ! A294  A(133,138,154)        110.6892         estimate D2E/DX2                !
 ! A295  A(152,138,153)        107.7287         estimate D2E/DX2                !
 ! A296  A(152,138,154)        107.7115         estimate D2E/DX2                !
 ! A297  A(153,138,154)        108.3378         estimate D2E/DX2                !
 ! A298  A(133,139,155)        111.8617         estimate D2E/DX2                !
 ! A299  A(133,139,156)        110.8065         estimate D2E/DX2                !
 ! A300  A(133,139,157)        110.452          estimate D2E/DX2                !
 ! A301  A(155,139,156)        107.7614         estimate D2E/DX2                !
 ! A302  A(155,139,157)        107.5976         estimate D2E/DX2                !
 ! A303  A(156,139,157)        108.2154         estimate D2E/DX2                !
 ! D1    D(4,1,3,7)             -2.9078         estimate D2E/DX2                !
 ! D2    D(4,1,3,8)            177.9429         estimate D2E/DX2                !
 ! D3    D(29,1,3,7)          -179.8737         estimate D2E/DX2                !
 ! D4    D(29,1,3,8)             0.977          estimate D2E/DX2                !
 ! D5    D(3,1,4,6)           -176.9706         estimate D2E/DX2                !
 ! D6    D(3,1,4,9)              2.6275         estimate D2E/DX2                !
 ! D7    D(29,1,4,6)             0.5678         estimate D2E/DX2                !
 ! D8    D(29,1,4,9)          -179.8341         estimate D2E/DX2                !
 ! D9    D(3,1,29,2)           177.0468         estimate D2E/DX2                !
 ! D10   D(3,1,29,19)           -2.8928         estimate D2E/DX2                !
 ! D11   D(4,1,29,2)            -0.203          estimate D2E/DX2                !
 ! D12   D(4,1,29,19)          179.8574         estimate D2E/DX2                !
 ! D13   D(6,2,5,10)            -2.9863         estimate D2E/DX2                !
 ! D14   D(6,2,5,11)           177.7018         estimate D2E/DX2                !
 ! D15   D(29,2,5,10)         -179.6209         estimate D2E/DX2                !
 ! D16   D(29,2,5,11)            1.0673         estimate D2E/DX2                !
 ! D17   D(5,2,6,4)           -176.667          estimate D2E/DX2                !
 ! D18   D(5,2,6,12)             2.7222         estimate D2E/DX2                !
 ! D19   D(29,2,6,4)             0.6015         estimate D2E/DX2                !
 ! D20   D(29,2,6,12)          179.9907         estimate D2E/DX2                !
 ! D21   D(5,2,29,1)           176.6896         estimate D2E/DX2                !
 ! D22   D(5,2,29,19)           -3.3706         estimate D2E/DX2                !
 ! D23   D(6,2,29,1)            -0.2583         estimate D2E/DX2                !
 ! D24   D(6,2,29,19)          179.6816         estimate D2E/DX2                !
 ! D25   D(1,3,7,13)             0.984          estimate D2E/DX2                !
 ! D26   D(1,3,7,14)          -178.5324         estimate D2E/DX2                !
 ! D27   D(8,3,7,13)          -179.8514         estimate D2E/DX2                !
 ! D28   D(8,3,7,14)             0.6322         estimate D2E/DX2                !
 ! D29   D(1,4,6,2)             -0.7135         estimate D2E/DX2                !
 ! D30   D(1,4,6,12)          -179.9839         estimate D2E/DX2                !
 ! D31   D(9,4,6,2)            179.7662         estimate D2E/DX2                !
 ! D32   D(9,4,6,12)             0.4958         estimate D2E/DX2                !
 ! D33   D(1,4,9,13)            -0.3273         estimate D2E/DX2                !
 ! D34   D(1,4,9,15)           179.4278         estimate D2E/DX2                !
 ! D35   D(6,4,9,13)           179.1442         estimate D2E/DX2                !
 ! D36   D(6,4,9,15)            -1.1008         estimate D2E/DX2                !
 ! D37   D(2,5,10,16)            1.0097         estimate D2E/DX2                !
 ! D38   D(2,5,10,17)         -178.5423         estimate D2E/DX2                !
 ! D39   D(11,5,10,16)        -179.6664         estimate D2E/DX2                !
 ! D40   D(11,5,10,17)           0.7817         estimate D2E/DX2                !
 ! D41   D(2,6,12,16)           -0.3844         estimate D2E/DX2                !
 ! D42   D(2,6,12,18)          179.4885         estimate D2E/DX2                !
 ! D43   D(4,6,12,16)          178.8115         estimate D2E/DX2                !
 ! D44   D(4,6,12,18)           -1.3157         estimate D2E/DX2                !
 ! D45   D(3,7,13,9)             1.2155         estimate D2E/DX2                !
 ! D46   D(3,7,13,27)         -178.3841         estimate D2E/DX2                !
 ! D47   D(14,7,13,9)         -179.281          estimate D2E/DX2                !
 ! D48   D(14,7,13,27)           1.1195         estimate D2E/DX2                !
 ! D49   D(4,9,13,7)            -1.5282         estimate D2E/DX2                !
 ! D50   D(4,9,13,27)          178.0838         estimate D2E/DX2                !
 ! D51   D(15,9,13,7)          178.7203         estimate D2E/DX2                !
 ! D52   D(15,9,13,27)          -1.6677         estimate D2E/DX2                !
 ! D53   D(5,10,16,12)           1.2269         estimate D2E/DX2                !
 ! D54   D(5,10,16,28)        -178.4518         estimate D2E/DX2                !
 ! D55   D(17,10,16,12)       -179.233          estimate D2E/DX2                !
 ! D56   D(17,10,16,28)          1.0882         estimate D2E/DX2                !
 ! D57   D(6,12,16,10)          -1.5237         estimate D2E/DX2                !
 ! D58   D(6,12,16,28)         178.165          estimate D2E/DX2                !
 ! D59   D(18,12,16,10)        178.6053         estimate D2E/DX2                !
 ! D60   D(18,12,16,28)         -1.7061         estimate D2E/DX2                !
 ! D61   D(7,13,27,43)        -120.6587         estimate D2E/DX2                !
 ! D62   D(7,13,27,47)         119.388          estimate D2E/DX2                !
 ! D63   D(7,13,27,51)          -0.4099         estimate D2E/DX2                !
 ! D64   D(9,13,27,43)          59.7477         estimate D2E/DX2                !
 ! D65   D(9,13,27,47)         -60.2055         estimate D2E/DX2                !
 ! D66   D(9,13,27,51)         179.9965         estimate D2E/DX2                !
 ! D67   D(10,16,28,55)         -0.2436         estimate D2E/DX2                !
 ! D68   D(10,16,28,59)        119.5497         estimate D2E/DX2                !
 ! D69   D(10,16,28,63)       -120.4935         estimate D2E/DX2                !
 ! D70   D(12,16,28,55)       -179.9175         estimate D2E/DX2                !
 ! D71   D(12,16,28,59)        -60.1242         estimate D2E/DX2                !
 ! D72   D(12,16,28,63)         59.8327         estimate D2E/DX2                !
 ! D73   D(24,19,20,21)         -0.0436         estimate D2E/DX2                !
 ! D74   D(24,19,20,113)      -179.3095         estimate D2E/DX2                !
 ! D75   D(29,19,20,21)        179.8476         estimate D2E/DX2                !
 ! D76   D(29,19,20,113)         0.5817         estimate D2E/DX2                !
 ! D77   D(20,19,24,23)          1.2451         estimate D2E/DX2                !
 ! D78   D(20,19,24,68)       -178.3278         estimate D2E/DX2                !
 ! D79   D(29,19,24,23)       -178.6456         estimate D2E/DX2                !
 ! D80   D(29,19,24,68)          1.7814         estimate D2E/DX2                !
 ! D81   D(20,19,29,1)         120.8075         estimate D2E/DX2                !
 ! D82   D(20,19,29,2)         -59.1217         estimate D2E/DX2                !
 ! D83   D(24,19,29,1)         -59.3035         estimate D2E/DX2                !
 ! D84   D(24,19,29,2)         120.7673         estimate D2E/DX2                !
 ! D85   D(19,20,21,22)         -1.1957         estimate D2E/DX2                !
 ! D86   D(19,20,21,25)        176.7303         estimate D2E/DX2                !
 ! D87   D(113,20,21,22)       178.0965         estimate D2E/DX2                !
 ! D88   D(113,20,21,25)        -3.9775         estimate D2E/DX2                !
 ! D89   D(19,20,113,114)      117.9009         estimate D2E/DX2                !
 ! D90   D(19,20,113,115)      -50.5685         estimate D2E/DX2                !
 ! D91   D(21,20,113,114)      -61.38           estimate D2E/DX2                !
 ! D92   D(21,20,113,115)      130.1506         estimate D2E/DX2                !
 ! D93   D(20,21,22,23)          1.2656         estimate D2E/DX2                !
 ! D94   D(20,21,22,67)       -176.9096         estimate D2E/DX2                !
 ! D95   D(25,21,22,23)       -176.6301         estimate D2E/DX2                !
 ! D96   D(25,21,22,67)          5.1947         estimate D2E/DX2                !
 ! D97   D(21,22,23,24)         -0.0596         estimate D2E/DX2                !
 ! D98   D(21,22,23,26)       -179.5763         estimate D2E/DX2                !
 ! D99   D(67,22,23,24)        178.1108         estimate D2E/DX2                !
 ! D100  D(67,22,23,26)         -1.4059         estimate D2E/DX2                !
 ! D101  D(21,22,67,30)         80.7961         estimate D2E/DX2                !
 ! D102  D(21,22,67,41)       -165.3645         estimate D2E/DX2                !
 ! D103  D(21,22,67,42)        -32.6782         estimate D2E/DX2                !
 ! D104  D(23,22,67,30)        -97.4178         estimate D2E/DX2                !
 ! D105  D(23,22,67,41)         16.4216         estimate D2E/DX2                !
 ! D106  D(23,22,67,42)        149.1079         estimate D2E/DX2                !
 ! D107  D(22,23,24,19)         -1.203          estimate D2E/DX2                !
 ! D108  D(22,23,24,68)        178.3854         estimate D2E/DX2                !
 ! D109  D(26,23,24,19)        178.3175         estimate D2E/DX2                !
 ! D110  D(26,23,24,68)         -2.094          estimate D2E/DX2                !
 ! D111  D(19,24,68,69)        -50.2351         estimate D2E/DX2                !
 ! D112  D(19,24,68,70)        117.4001         estimate D2E/DX2                !
 ! D113  D(23,24,68,69)        130.1838         estimate D2E/DX2                !
 ! D114  D(23,24,68,70)        -62.181          estimate D2E/DX2                !
 ! D115  D(13,27,43,44)       -179.6607         estimate D2E/DX2                !
 ! D116  D(13,27,43,45)        -59.769          estimate D2E/DX2                !
 ! D117  D(13,27,43,46)         60.5094         estimate D2E/DX2                !
 ! D118  D(47,27,43,44)        -59.982          estimate D2E/DX2                !
 ! D119  D(47,27,43,45)         59.9098         estimate D2E/DX2                !
 ! D120  D(47,27,43,46)       -179.8118         estimate D2E/DX2                !
 ! D121  D(51,27,43,44)         57.5154         estimate D2E/DX2                !
 ! D122  D(51,27,43,45)        177.4072         estimate D2E/DX2                !
[...]
 ErrMax= 1.83D-07  0.00D+00 EMaxC= 1.00D-01 BMatC= 4.71D-11 BMatP= 1.31D-09
 IDIUse=1 WtCom= 1.00D+00 WtEn= 0.00D+00
 Coeff-Com:  0.319D-03-0.101D-01-0.541D-02 0.185D-01 0.135D+00 0.213D+00
 Coeff-Com:  0.649D+00
 Coeff:      0.319D-03-0.101D-01-0.541D-02 0.185D-01 0.135D+00 0.213D+00
 Coeff:      0.649D+00
 Gap=     0.200 Goal=   None    Shift=    0.000
 RMSDP=7.73D-09 MaxDP=8.57D-07 DE=-1.09D-09 OVMax= 1.71D-06

 SCF Done:  E(RwB97XD) =  -3503.76740881     A.U. after   10 cycles
            NFock= 10  Conv=0.77D-08     -V/T= 2.0087
 KE= 3.473385603492D+03 PE=-3.661882938093D+04 EE= 1.540211255165D+04
 Leave Link  502 at Wed Nov  6 21:05:40 2024, MaxMem=  2147483648 cpu:            7621.6 elap:            1146.7
 (Enter /apps/gaussian/g16/l801.exe)
 DoSCS=F DFT=T ScalE2(SS,OS)=  1.000000  1.000000
 ExpMin= 1.17D-01 ExpMax= 2.19D+04 ExpMxC= 3.30D+03 IAcc=3 IRadAn=         5 AccDes= 0.00D+00
 HarFok:  IExCor=  205 AccDes= 0.00D+00 IRadAn=         5 IDoV=-2 UseB2=F ITyADJ=14
 ICtDFT= 12500011 ScaDFX=  1.000000  1.000000  1.000000  1.000000
 GSVD:  LWork=       -7380 too small for GESVD, short by       34850 words or       34850 for optimal perf.
 Largest valence mixing into a core orbital is  1.66D-04
 Largest core mixing into a valence orbital is  3.45D-05
 Range of M.O.s used for correlation:    83  1569
 NBasis=  1569 NAE=   282 NBE=   282 NFC=    82 NFV=     0
 NROrb=   1487 NOA=   200 NOB=   200 NVA=  1287 NVB=  1287

 **** Warning!!: The largest alpha MO coefficient is  0.11601665D+02

 Leave Link  801 at Wed Nov  6 21:05:48 2024, MaxMem=  2147483648 cpu:              47.3 elap:               7.7
 (Enter /apps/gaussian/g16/l914.exe)
 RHF ground state
 Two-electron integrals replicated using symmetry.
 MDV=  2147483648 DFT=T DoStab=F Mixed=T DoRPA=F DoScal=F NonHer=F
 Making orbital integer symmetry assigments:
 Orbital symmetries:
       Occupied  (A) (A) (A) (A) (A) (A) (A) (A) (A) (A) (A) (A)
                 (A) (A) (A) (A) (A) (A) (A) (A) (A) (A) (A) (A)
                 (A) (A) (A) (A) (A) (A) (A) (A) (A) (A) (A) (A)
                 (A) (A) (A) (A) (A) (A) (A) (A) (A) (A) (A) (A)
                 (A) (A) (A) (A) (A) (A) (A) (A) (A) (A) (A) (A)
                 (A) (A) (A) (A) (A) (A) (A) (A) (A) (A) (A) (A)
                 (A) (A) (A) (A) (A) (A) (A) (A) (A) (A) (A) (A)
                 (A) (A) (A) (A) (A) (A) (A) (A) (A) (A) (A) (A)
                 (A) (A) (A) (A) (A) (A) (A) (A) (A) (A) (A) (A)
                 (A) (A) (A) (A) (A) (A) (A) (A) (A) (A) (A) (A)
                 (A) (A) (A) (A) (A) (A) (A) (A) (A) (A) (A) (A)
                 (A) (A) (A) (A) (A) (A) (A) (A) (A) (A) (A) (A)
                 (A) (A) (A) (A) (A) (A) (A) (A) (A) (A) (A) (A)
                 (A) (A) (A) (A) (A) (A) (A) (A) (A) (A) (A) (A)
                 (A) (A) (A) (A) (A) (A) (A) (A) (A) (A) (A) (A)
                 (A) (A) (A) (A) (A) (A) (A) (A) (A) (A) (A) (A)
                 (A) (A) (A) (A) (A) (A) (A) (A) (A) (A) (A) (A)
                 (A) (A) (A) (A) (A) (A) (A) (A) (A) (A) (A) (A)
                 (A) (A) (A) (A) (A) (A) (A) (A) (A) (A) (A) (A)
                 (A) (A) (A) (A) (A) (A) (A) (A) (A) (A) (A) (A)
                 (A) (A) (A) (A) (A) (A) (A) (A) (A) (A) (A) (A)
                 (A) (A) (A) (A) (A) (A) (A) (A) (A) (A) (A) (A)
                 (A) (A) (A) (A) (A) (A) (A) (A) (A) (A) (A) (A)
                 (A) (A) (A) (A) (A) (A)
       Virtual   (A) (A) (A) (A) (A) (A) (A) (A) (A) (A) (A) (A)
                 (A) (A) (A) (A) (A) (A) (A) (A) (A) (A) (A) (A)
                 (A) (A) (A) (A) (A) (A) (A) (A) (A) (A) (A) (A)
                 (A) (A) (A) (A) (A) (A) (A) (A) (A) (A) (A) (A)
                 (A) (A) (A) (A) (A) (A) (A) (A) (A) (A) (A) (A)
                 (A) (A) (A) (A) (A) (A) (A) (A) (A) (A) (A) (A)
                 (A) (A) (A) (A) (A) (A) (A) (A) (A) (A) (A) (A)
                 (A) (A) (A) (A) (A) (A) (A) (A) (A) (A) (A) (A)
                 (A) (A) (A) (A) (A) (A) (A) (A) (A) (A) (A) (A)
                 (A) (A) (A) (A) (A) (A) (A) (A) (A) (A) (A) (A)
                 (A) (A) (A) (A) (A) (A) (A) (A) (A) (A) (A) (A)
                 (A) (A) (A) (A) (A) (A) (A) (A) (A) (A) (A) (A)
                 (A) (A) (A) (A) (A) (A) (A) (A) (A) (A) (A) (A)
                 (A) (A) (A) (A) (A) (A) (A) (A) (A) (A) (A) (A)
                 (A) (A) (A) (A) (A) (A) (A) (A) (A) (A) (A) (A)
                 (A) (A) (A) (A) (A) (A) (A) (A) (A) (A) (A) (A)
                 (A) (A) (A) (A) (A) (A) (A) (A) (A) (A) (A) (A)
                 (A) (A) (A) (A) (A) (A) (A) (A) (A) (A) (A) (A)
                 (A) (A) (A) (A) (A) (A) (A) (A) (A) (A) (A) (A)
                 (A) (A) (A) (A) (A) (A) (A) (A) (A) (A) (A) (A)
                 (A) (A) (A) (A) (A) (A) (A) (A) (A) (A) (A) (A)
                 (A) (A) (A) (A) (A) (A) (A) (A) (A) (A) (A) (A)
                 (A) (A) (A) (A) (A) (A) (A) (A) (A) (A) (A) (A)
                 (A) (A) (A) (A) (A) (A) (A) (A) (A) (A) (A) (A)
                 (A) (A) (A) (A) (A) (A) (A) (A) (A) (A) (A) (A)
                 (A) (A) (A) (A) (A) (A) (A) (A) (A) (A) (A) (A)
                 (A) (A) (A) (A) (A) (A) (A) (A) (A) (A) (A) (A)
                 (A) (A) (A) (A) (A) (A) (A) (A) (A) (A) (A) (A)
                 (A) (A) (A) (A) (A) (A) (A) (A) (A) (A) (A) (A)
                 (A) (A) (A) (A) (A) (A) (A) (A) (A) (A) (A) (A)
                 (A) (A) (A) (A) (A) (A) (A) (A) (A) (A) (A) (A)
                 (A) (A) (A) (A) (A) (A) (A) (A) (A) (A) (A) (A)
                 (A) (A) (A) (A) (A) (A) (A) (A) (A) (A) (A) (A)
                 (A) (A) (A) (A) (A) (A) (A) (A) (A) (A) (A) (A)
                 (A) (A) (A) (A) (A) (A) (A) (A) (A) (A) (A) (A)
                 (A) (A) (A) (A) (A) (A) (A) (A) (A) (A) (A) (A)
                 (A) (A) (A) (A) (A) (A) (A) (A) (A) (A) (A) (A)
                 (A) (A) (A) (A) (A) (A) (A) (A) (A) (A) (A) (A)
                 (A) (A) (A) (A) (A) (A) (A) (A) (A) (A) (A) (A)
                 (A) (A) (A) (A) (A) (A) (A) (A) (A) (A) (A) (A)
                 (A) (A) (A) (A) (A) (A) (A) (A) (A) (A) (A) (A)
                 (A) (A) (A) (A) (A) (A) (A) (A) (A) (A) (A) (A)
                 (A) (A) (A) (A) (A) (A) (A) (A) (A) (A) (A) (A)
                 (A) (A) (A) (A) (A) (A) (A) (A) (A) (A) (A) (A)
                 (A) (A) (A) (A) (A) (A) (A) (A) (A) (A) (A) (A)
                 (A) (A) (A) (A) (A) (A) (A) (A) (A) (A) (A) (A)
                 (A) (A) (A) (A) (A) (A) (A) (A) (A) (A) (A) (A)
                 (A) (A) (A) (A) (A) (A) (A) (A) (A) (A) (A) (A)
                 (A) (A) (A) (A) (A) (A) (A) (A) (A) (A) (A) (A)
                 (A) (A) (A) (A) (A) (A) (A) (A) (A) (A) (A) (A)
                 (A) (A) (A) (A) (A) (A) (A) (A) (A) (A) (A) (A)
                 (A) (A) (A) (A) (A) (A) (A) (A) (A) (A) (A) (A)
                 (A) (A) (A) (A) (A) (A) (A) (A) (A) (A) (A) (A)
                 (A) (A) (A) (A) (A) (A) (A) (A) (A) (A) (A) (A)
                 (A) (A) (A) (A) (A) (A) (A) (A) (A) (A) (A) (A)
                 (A) (A) (A) (A) (A) (A) (A) (A) (A) (A) (A) (A)
                 (A) (A) (A) (A) (A) (A) (A) (A) (A) (A) (A) (A)
                 (A) (A) (A) (A) (A) (A) (A) (A) (A) (A) (A) (A)
                 (A) (A) (A) (A) (A) (A) (A) (A) (A) (A) (A) (A)
                 (A) (A) (A) (A) (A) (A) (A) (A) (A) (A) (A) (A)
                 (A) (A) (A) (A) (A) (A) (A) (A) (A) (A) (A) (A)
                 (A) (A) (A) (A) (A) (A) (A) (A) (A) (A) (A) (A)
                 (A) (A) (A) (A) (A) (A) (A) (A) (A) (A) (A) (A)
                 (A) (A) (A) (A) (A) (A) (A) (A) (A) (A) (A) (A)
                 (A) (A) (A) (A) (A) (A) (A) (A) (A) (A) (A) (A)
                 (A) (A) (A) (A) (A) (A) (A) (A) (A) (A) (A) (A)
                 (A) (A) (A) (A) (A) (A) (A) (A) (A) (A) (A) (A)
                 (A) (A) (A) (A) (A) (A) (A) (A) (A) (A) (A) (A)
                 (A) (A) (A) (A) (A) (A) (A) (A) (A) (A) (A) (A)
                 (A) (A) (A) (A) (A) (A) (A) (A) (A) (A) (A) (A)
                 (A) (A) (A) (A) (A) (A) (A) (A) (A) (A) (A) (A)
                 (A) (A) (A) (A) (A) (A) (A) (A) (A) (A) (A) (A)
                 (A) (A) (A) (A) (A) (A) (A) (A) (A) (A) (A) (A)
                 (A) (A) (A) (A) (A) (A) (A) (A) (A) (A) (A) (A)
                 (A) (A) (A) (A) (A) (A) (A) (A) (A) (A) (A) (A)
                 (A) (A) (A) (A) (A) (A) (A) (A) (A) (A) (A) (A)
                 (A) (A) (A) (A) (A) (A) (A) (A) (A) (A) (A) (A)
                 (A) (A) (A) (A) (A) (A) (A) (A) (A) (A) (A) (A)
                 (A) (A) (A) (A) (A) (A) (A) (A) (A) (A) (A) (A)
                 (A) (A) (A) (A) (A) (A) (A) (A) (A) (A) (A) (A)
                 (A) (A) (A) (A) (A) (A) (A) (A) (A) (A) (A) (A)
                 (A) (A) (A) (A) (A) (A) (A) (A) (A) (A) (A) (A)
                 (A) (A) (A) (A) (A) (A) (A) (A) (A) (A) (A) (A)
                 (A) (A) (A) (A) (A) (A) (A) (A) (A) (A) (A) (A)
                 (A) (A) (A) (A) (A) (A) (A) (A) (A) (A) (A) (A)
                 (A) (A) (A) (A) (A) (A) (A) (A) (A) (A) (A) (A)
                 (A) (A) (A) (A) (A) (A) (A) (A) (A) (A) (A) (A)
                 (A) (A) (A) (A) (A) (A) (A) (A) (A) (A) (A) (A)
                 (A) (A) (A) (A) (A) (A) (A) (A) (A) (A) (A) (A)
                 (A) (A) (A) (A) (A) (A) (A) (A) (A) (A) (A) (A)
                 (A) (A) (A) (A) (A) (A) (A) (A) (A) (A) (A) (A)
                 (A) (A) (A) (A) (A) (A) (A) (A) (A) (A) (A) (A)
                 (A) (A) (A) (A) (A) (A) (A) (A) (A) (A) (A) (A)
                 (A) (A) (A) (A) (A) (A) (A) (A) (A) (A) (A) (A)
                 (A) (A) (A) (A) (A) (A) (A) (A) (A) (A) (A) (A)
                 (A) (A) (A) (A) (A) (A) (A) (A) (A) (A) (A) (A)
                 (A) (A) (A) (A) (A) (A) (A) (A) (A) (A) (A) (A)
                 (A) (A) (A) (A) (A) (A) (A) (A) (A) (A) (A) (A)
                 (A) (A) (A) (A) (A) (A) (A) (A) (A) (A) (A) (A)
                 (A) (A) (A) (A) (A) (A) (A) (A) (A) (A) (A) (A)
                 (A) (A) (A) (A) (A) (A) (A) (A) (A) (A) (A) (A)
                 (A) (A) (A) (A) (A) (A) (A) (A) (A) (A) (A) (A)
                 (A) (A) (A) (A) (A) (A) (A) (A) (A) (A) (A) (A)
                 (A) (A) (A) (A) (A) (A) (A) (A) (A) (A) (A) (A)
                 (A) (A) (A) (A) (A) (A) (A) (A) (A) (A) (A) (A)
                 (A) (A) (A) (A) (A) (A) (A) (A) (A) (A) (A) (A)
                 (A) (A) (A) (A) (A) (A) (A) (A) (A) (A) (A) (A)
                 (A) (A) (A)
 Generating guess from densities on rwf.
 Convergence on wavefunction:    0.000001000000000
 Davidson Disk Diagonalization:  ConvIn= 1.00D-06 SkipCon=T Conv= 1.00D-06.
 Max sub-space:  2000 roots to seek:     4 dimension of matrix:       514800
 Iteration     1 Dimension     4 NMult     0 NNew      4
 CISAX will form     4 AO SS matrices at one time.
 NMat=     4 NSing=     0 JSym2X= 0.
 FoFJK:  IHMeth= 1 ICntrl=       0 DoSepK=T KAlg= 0 I1Cent=           0 FoldK=F
 IRaf=         1 NMat=       8 IRICut=       1 DoRegI=T DoRafI=F ISym2E= 0 IDoP0=0 IntGTp=1.
 FoFCou: FMM=T IPFlag=           0 FMFlag=      100000 FMFlg1=        2001
         NFxFlg=           0 DoJE=F BraDBF=F KetDBF=F FulRan=T
         wScrn=  0.000000 ICntrl=         0 IOpCl=  0 I1Cent=           0 NGrid=           0
         NMat0=    8 NMatS0=      0 NMatT0=    4 NMatD0=    8 NMtDS0=    0 NMtDT0=    0
         CW=    0.222036    0.777964
         WU=    0.000000   44.752781
 Symmetry not used in FoFCou.
 FMM levels:  10  Number of levels for PrismC:   7
 New state      1 was old state      2
 New state      2 was old state      1
 Excitation Energies [eV] at current iteration:
 Root      1 :     2.655359560552785
 Root      2 :     2.991101195343410
 Root      3 :     3.029309422322275
 Root      4 :     3.404525583679380
 Iteration     2 Dimension     8 NMult     4 NNew      4
 CISAX will form     4 AO SS matrices at one time.
 NMat=     4 NSing=     0 JSym2X= 0.
 Root      1 not converged, maximum delta is    0.001135732696499
 Root      2 not converged, maximum delta is    0.001650789644460
 Root      3 not converged, maximum delta is    0.001615705192372
 Root      4 not converged, maximum delta is    0.001221128955980
 Excitation Energies [eV] at current iteration:
 Root      1 :     2.654832461345460   Change is   -0.000527099207325
 Root      2 :     2.990786557874821   Change is   -0.000314637468589
 Root      3 :     3.028942845178393   Change is   -0.000366577143882
 Root      4 :     3.404091030559303   Change is   -0.000434553120077
 Iteration     3 Dimension    12 NMult     8 NNew      4
 CISAX will form     4 AO SS matrices at one time.
 NMat=     4 NSing=     0 JSym2X= 0.
 Root      1 not converged, maximum delta is    0.000206733257379
 Root      2 not converged, maximum delta is    0.000333673720529
 Root      3 not converged, maximum delta is    0.000199790706898
 Root      4 not converged, maximum delta is    0.002383101170869
 Excitation Energies [eV] at current iteration:
 Root      1 :     2.654823216002136   Change is   -0.000009245343324
 Root      2 :     2.990779865584520   Change is   -0.000006692290301
 Root      3 :     3.028936463106445   Change is   -0.000006382071948
 Root      4 :     3.404063379009262   Change is   -0.000027651550041
 Iteration     4 Dimension    16 NMult    12 NNew      4
 CISAX will form     4 AO SS matrices at one time.
 NMat=     4 NSing=     0 JSym2X= 0.
 Root      1 not converged, maximum delta is    0.000093667122189
 Root      2 not converged, maximum delta is    0.000296393955557
 Root      3 not converged, maximum delta is    0.000200715008060
 Root      4 not converged, maximum delta is    0.005295941576064
 Excitation Energies [eV] at current iteration:
 Root      1 :     2.654822443262312   Change is   -0.000000772739823
 Root      2 :     2.990778578173898   Change is   -0.000001287410623
 Root      3 :     3.028935546292235   Change is   -0.000000916814210
 Root      4 :     3.404030479258514   Change is   -0.000032899750749
 Iteration     5 Dimension    20 NMult    16 NNew      4
 CISAX will form     4 AO SS matrices at one time.
 NMat=     4 NSing=     0 JSym2X= 0.
 Root      1 not converged, maximum delta is    0.000063260578402
 Root      2 not converged, maximum delta is    0.000220563223607
 Root      3 not converged, maximum delta is    0.000188683077862
 Root      4 not converged, maximum delta is    0.002058612435575
 Excitation Energies [eV] at current iteration:
 Root      1 :     2.654822272180763   Change is   -0.000000171081549
 Root      2 :     2.990778054608910   Change is   -0.000000523564988
 Root      3 :     3.028935163796575   Change is   -0.000000382495661
 Root      4 :     3.404018286351526   Change is   -0.000012192906987
 Iteration     6 Dimension    24 NMult    20 NNew      4
 CISAX will form     4 AO SS matrices at one time.
 NMat=     4 NSing=     0 JSym2X= 0.
 Root      1 not converged, maximum delta is    0.000018506638394
 Root      2 not converged, maximum delta is    0.000073507013113
 Root      3 not converged, maximum delta is    0.000053120798775
 Root      4 not converged, maximum delta is    0.000663049380809
 Excitation Energies [eV] at current iteration:
 Root      1 :     2.654822245108756   Change is   -0.000000027072007
 Root      2 :     2.990777925122397   Change is   -0.000000129486513
 Root      3 :     3.028935089777607   Change is   -0.000000074018967
 Root      4 :     3.404013006139047   Change is   -0.000005280212480
 Iteration     7 Dimension    28 NMult    24 NNew      4
 CISAX will form     4 AO SS matrices at one time.
 NMat=     4 NSing=     0 JSym2X= 0.
 Root      1 not converged, maximum delta is    0.000006698461830
 Root      2 not converged, maximum delta is    0.000024653379743
 Root      3 not converged, maximum delta is    0.000021809301008
 Root      4 not converged, maximum delta is    0.000504469324657
 Excitation Energies [eV] at current iteration:
 Root      1 :     2.654822241251924   Change is   -0.000000003856832
 Root      2 :     2.990777899125087   Change is   -0.000000025997310
 Root      3 :     3.028935071058172   Change is   -0.000000018719436
 Root      4 :     3.404009258245173   Change is   -0.000003747893873
 Iteration     8 Dimension    32 NMult    28 NNew      4
 CISAX will form     4 AO SS matrices at one time.
 NMat=     4 NSing=     0 JSym2X= 0.
 Root      1 not converged, maximum delta is    0.000003162428360
 Root      2 not converged, maximum delta is    0.000011601461675
 Root      3 not converged, maximum delta is    0.000012962185823
 Root      4 not converged, maximum delta is    0.000810491796664
 Excitation Energies [eV] at current iteration:
 Root      1 :     2.654822240282535   Change is   -0.000000000969389
 Root      2 :     2.990777892502369   Change is   -0.000000006622719
 Root      3 :     3.028935064550846   Change is   -0.000000006507326
 Root      4 :     3.404005651478511   Change is   -0.000003606766662
 Iteration     9 Dimension    36 NMult    32 NNew      4
 CISAX will form     4 AO SS matrices at one time.
 NMat=     4 NSing=     0 JSym2X= 0.
 Root      1 not converged, maximum delta is    0.000001542046179
 Root      2 not converged, maximum delta is    0.000007303978686
 Root      3 not converged, maximum delta is    0.000004725256261
 Root      4 not converged, maximum delta is    0.000534366960792
 Excitation Energies [eV] at current iteration:
 Root      1 :     2.654822239891101   Change is   -0.000000000391434
 Root      2 :     2.990777890515610   Change is   -0.000000001986759
 Root      3 :     3.028935062779381   Change is   -0.000000001771465
 Root      4 :     3.404003852134880   Change is   -0.000001799343631
 Iteration    10 Dimension    40 NMult    36 NNew      4
 CISAX will form     4 AO SS matrices at one time.
 NMat=     4 NSing=     0 JSym2X= 0.
 Root      1 not converged, maximum delta is    0.000001546788210
 Root      2 not converged, maximum delta is    0.000003432201366
 Root      3 not converged, maximum delta is    0.000002080793593
 Root      4 not converged, maximum delta is    0.000303682469681
 Excitation Energies [eV] at current iteration:
 Root      1 :     2.654822239699299   Change is   -0.000000000191802
 Root      2 :     2.990777889862044   Change is   -0.000000000653566
 Root      3 :     3.028935062192810   Change is   -0.000000000586571
 Root      4 :     3.404003123394576   Change is   -0.000000728740304
 Iteration    11 Dimension    44 NMult    40 NNew      4
 CISAX will form     4 AO SS matrices at one time.
 NMat=     4 NSing=     0 JSym2X= 0.
 Root      1 not converged, maximum delta is    0.000001099067488
 Root      2 not converged, maximum delta is    0.000001600990485
 Root      3 not converged, maximum delta is    0.000001859856548
 Root      4 not converged, maximum delta is    0.000162133638203
 Excitation Energies [eV] at current iteration:
 Root      1 :     2.654822239582547   Change is   -0.000000000116752
 Root      2 :     2.990777889604086   Change is   -0.000000000257957
 Root      3 :     3.028935061947275   Change is   -0.000000000245534
 Root      4 :     3.404002842475249   Change is   -0.000000280919327
 Iteration    12 Dimension    48 NMult    44 NNew      4
 CISAX will form     4 AO SS matrices at one time.
 NMat=     4 NSing=     0 JSym2X= 0.
 Root      1 not converged, maximum delta is    0.000001010014502
 Root      2 not converged, maximum delta is    0.000002127932114
 Root      3 not converged, maximum delta is    0.000001741303748
 Root      4 not converged, maximum delta is    0.000240897675125
 Excitation Energies [eV] at current iteration:
 Root      1 :     2.654822239491933   Change is   -0.000000000090614
 Root      2 :     2.990777889452797   Change is   -0.000000000151289
 Root      3 :     3.028935061806699   Change is   -0.000000000140576
 Root      4 :     3.404002632310689   Change is   -0.000000210164560
 Iteration    13 Dimension    52 NMult    48 NNew      4
 CISAX will form     4 AO SS matrices at one time.
 NMat=     4 NSing=     0 JSym2X= 0.
