 Entering Gaussian System, Link 0=g16
 Initial command:
 /apps/gaussian/g16/l1.exe "/local/Gau-652512.inp" -scrdir="/local/"
 Entering Link 1 = /apps/gaussian/g16/l1.exe PID=    652513.
  
 Copyright (c) 1988-2019, Gaussian, Inc.  All Rights Reserved.
  
 This is part of the Gaussian(R) 16 program.  It is based on
 the Gaussian(R) 09 system (copyright 2009, Gaussian, Inc.),
 the Gaussian(R) 03 system (copyright 2003, Gaussian, Inc.),
 the Gaussian(R) 98 system (copyright 1998, Gaussian, Inc.),
 the Gaussian(R) 94 system (copyright 1995, Gaussian, Inc.),
 the Gaussian 92(TM) system (copyright 1992, Gaussian, Inc.),
 the Gaussian 90(TM) system (copyright 1990, Gaussian, Inc.),
 the Gaussian 88(TM) system (copyright 1988, Gaussian, Inc.),
 the Gaussian 86(TM) system (copyright 1986, Carnegie Mellon
 University), and the Gaussian 82(TM) system (copyright 1983,
 Carnegie Mellon University). Gaussian is a federally registered
 trademark of Gaussian, Inc.
  
 This software contains proprietary and confidential information,
 including trade secrets, belonging to Gaussian, Inc.
  
 This software is provided under written license and may be
 used, copied, transmitted, or stored only in accord with that
 written license.
  
 The following legend is applicable only to US Government
 contracts under FAR:
  
                    RESTRICTED RIGHTS LEGEND
  
 Use, reproduction and disclosure by the US Government is
 subject to restrictions as set forth in subparagraphs (a)
 and (c) of the Commercial Computer Software - Restricted
 Rights clause in FAR 52.227-19.
  
 Gaussian, Inc.
 340 Quinnipiac St., Bldg. 40, Wallingford CT 06492
  
  
 ---------------------------------------------------------------
 Warning -- This program may not be used in any manner that
 competes with the business of Gaussian, Inc. or will provide
 assistance to any competitor of Gaussian, Inc.  The licensee
 of this program is prohibited from giving any competitor of
 Gaussian, Inc. access to this program.  By using this program,
 the user acknowledges that Gaussian, Inc. is engaged in the
 business of creating and licensing software in the field of
 computational chemistry and represents and warrants to the
 licensee that it is not a competitor of Gaussian, Inc. and that
 it will not use this program in any manner prohibited above.
 ---------------------------------------------------------------
  

 Cite this work as:
 Gaussian 16, Revision C.01,
 M. J. Frisch, G. W. Trucks, H. B. Schlegel, G. E. Scuseria, 
 M. A. Robb, J. R. Cheeseman, G. Scalmani, V. Barone, 
 G. A. Petersson, H. Nakatsuji, X. Li, M. Caricato, A. V. Marenich, 
 J. Bloino, B. G. Janesko, R. Gomperts, B. Mennucci, H. P. Hratchian, 
 J. V. Ortiz, A. F. Izmaylov, J. L. Sonnenberg, D. Williams-Young, 
 F. Ding, F. Lipparini, F. Egidi, J. Goings, B. Peng, A. Petrone, 
 T. Henderson, D. Ranasinghe, V. G. Zakrzewski, J. Gao, N. Rega, 
 G. Zheng, W. Liang, M. Hada, M. Ehara, K. Toyota, R. Fukuda, 
 J. Hasegawa, M. Ishida, T. Nakajima, Y. Honda, O. Kitao, H. Nakai, 
 T. Vreven, K. Throssell, J. A. Montgomery, Jr., J. E. Peralta, 
 F. Ogliaro, M. J. Bearpark, J. J. Heyd, E. N. Brothers, K. N. Kudin, 
 V. N. Staroverov, T. A. Keith, R. Kobayashi, J. Normand, 
 K. Raghavachari, A. P. Rendell, J. C. Burant, S. S. Iyengar, 
 J. Tomasi, M. Cossi, J. M. Millam, M. Klene, C. Adamo, R. Cammi, 
 J. W. Ochterski, R. L. Martin, K. Morokuma, O. Farkas, 
 J. B. Foresman, and D. J. Fox, Gaussian, Inc., Wallingford CT, 2019.
 
 ******************************************
 Gaussian 16:  ES64L-G16RevC.01  3-Jul-2019
                 6-Nov-2024 
 ******************************************
 %chk=YZ-IX-165.chk
 %nprocshared=16
 Will use up to   16 processors via shared memory.
 %mem=16GB
 ----------------------------------------------------------------------
 #p opt wb97xd/6-31G** iop(3/107=0109400000,3/108=0109400000) TDA=(trip
 lets, nstates=4, root=2)
 ----------------------------------------------------------------------
 1/18=20,19=15,26=3,38=1/1,3;
 2/9=110,12=2,17=6,18=5,40=1/2;
 3/5=1,6=6,7=101,11=9,25=1,30=1,71=1,74=-58,107=109400000,108=109400000/1,2,3,8;
 4//1;
 5/5=2,38=5/2;
 8/6=1,10=2,107=2,108=4/1;
 9/8=2,15=2,41=4,42=1,48=3/14;
 10/5=4,28=2/2;
 6/7=2,8=2,9=2,10=2/1;
 7/12=6,13=5,14=2/1,2,3,16;
 1/18=20,19=15,26=3/3(2);
 2/9=110/2;
 99//99;
 2/9=110/2;
 3/5=1,6=6,7=101,11=9,25=1,30=1,71=1,74=-58,107=109400000,108=109400000/1,2,3,8;
 4/5=5,16=3,69=1/1;
 5/5=2,38=5/2;
 8/6=1,10=2,107=2,108=4/1;
 9/8=2,15=2,41=4,42=1,48=3,49=4/14;
 10/5=4,28=2/2;
 7/12=6,13=5,14=2/1,2,3,16;
 1/18=20,19=15,26=3/3(-8);
 2/9=110/2;
 6/7=2,8=2,9=2,10=2/1;
 99/9=10/99;
 Leave Link    1 at Wed Nov  6 23:24:10 2024, MaxMem=  2147483648 cpu:               0.8 elap:               0.2
 (Enter /apps/gaussian/g16/l101.exe)
 ------------------------------------------------------------
 Tuning input file generated by xtune with parameters: w01094
 ------------------------------------------------------------
 Symbolic Z-matrix:
 Charge =  0 Multiplicity = 1
 C                     1.53092   3.67891   0.54388 
 C                    -0.23061   3.87675  -0.88008 
 C                     2.47865   3.24717   1.46752 
 C                     1.49453   5.02408   0.1192 
 C                    -1.31602   3.6591   -1.72398 
 C                     0.3728    5.14956  -0.79219 
 C                     3.4056    4.17755   1.93397 
 H                     2.50452   2.22584   1.82911 
 C                     2.43412   5.93104   0.60574 
 C                    -1.80455   4.74254  -2.4521 
 H                    -1.77415   2.68271  -1.82977 
 C                    -0.13822   6.21282  -1.53404 
 C                     3.4129    5.52255   1.5187 
 H                     4.14179   3.83061   2.64835 
 H                     2.39301   6.96233   0.26961 
 C                    -1.24251   6.03066  -2.37413 
 H                    -2.65252   4.56324  -3.10134 
 H                     0.33683   7.1856   -1.45494 
 C                     0.18985   1.61917   0.1068 
 C                    -1.1146    1.18859   0.35081 
 C                    -1.41028  -0.1655    0.50962 
 C                    -0.38296  -1.12955   0.47043 
 C                     0.92776  -0.68688   0.20951 
 C                     1.20371   0.66374   0.01668 
 C                    -3.47803  -0.55124   1.88002 
 C                    -3.63343  -0.83892  -0.35769 
 C                    -3.0437   -0.29405   3.17439 
 C                    -4.80922  -0.93809   1.61222 
 C                    -3.38815  -0.90813  -1.72494 
 C                    -4.9091   -1.12605   0.17686 
 C                    -3.97069  -0.42845   4.20566 
 H                    -2.01838  -0.00844   3.38203 
 C                    -5.71198  -1.06161   2.66687 
 C                    -4.44226  -1.28832  -2.55583 
 H                    -2.41234  -0.67358  -2.1377 
 C                    -5.94087  -1.49919  -0.68173 
 C                    -5.30868  -0.80899   3.98321 
 H                    -3.62837  -0.23165   5.21414 
 H                    -6.73344  -1.36152   2.45421 
 C                    -5.72558  -1.59209  -2.06301 
 H                    -4.24743  -1.34255  -3.62011 
 H                    -6.91796  -1.72182  -0.2644 
 C                     2.97729  -1.87495   1.02302 
 C                     2.54181  -1.92999  -1.19736 
 C                     2.94292  -1.64885   2.3968 
 C                     4.09189  -2.47498   0.40618 
 C                     1.98214  -1.7873   -2.46082 
 C                     3.81094  -2.5193   -1.01685 
 C                     4.04898  -2.04211   3.13768 
 H                     2.07403  -1.21216   2.87349 
 C                     5.18652  -2.87099   1.18275 
 C                     2.70708  -2.26775  -3.54844 
 H                     1.00723  -1.33427  -2.59934 
 C                     4.50994  -2.99455  -2.12575 
 C                     5.18386  -2.65796   2.56108 
 H                     4.02423  -1.87348   4.20936 
 H                     6.03418  -3.33524   0.69305 
 C                     3.96762  -2.8812   -3.41123 
 H                     2.26452  -2.16154  -4.53104 
 H                     5.48359  -3.45175  -1.97895 
 C                     4.44327   6.54311   2.03499 
 C                    -1.79094   7.22412  -3.17707 
 N                     0.4768    2.98145  -0.06436 
 N                    -2.77743  -0.48933   0.67898 
 N                     2.0113   -1.5928    0.05128 
 C                    -6.32704  -0.95972   5.1284 
 C                    -6.88521  -2.01721  -2.98244 
 C                     4.76042  -3.41772  -4.61712 
 C                     6.35825  -3.06762   3.46671 
 S                    -0.66814  -2.88941   0.89342 
 C                    -0.14314  -3.80596  -0.55037 
 C                    -0.961    -3.79425  -1.68089 
 C                     1.03147  -4.55158  -0.49624 
 C                    -0.56832  -4.53111  -2.79528 
 H                    -1.89047  -3.23435  -1.68016 
 C                     1.40663  -5.29088  -1.61563 
 H                     1.63792  -4.53489   0.40179 
 C                     0.61298  -5.2744   -2.76214 
 H                    -1.18918  -4.53201  -3.68444 
 H                     2.32472  -5.866    -1.59439 
 H                     0.9136   -5.84597  -3.63357 
 O                     0.2403   -3.18508   2.00104 
 O                    -2.10248  -3.11      1.04064 
 H                     2.21769   0.95691  -0.2274 
 H                    -1.92641   1.90101   0.4306 
 C                    -0.68522   7.76581  -4.11097 
 H                    -1.05932   8.6141   -4.69407 
 H                     0.18876   8.10903  -3.55032 
 H                    -0.3516    6.99179  -4.80854 
 C                    -2.23274   8.33787  -2.20111 
 H                    -1.40019   8.69532  -1.58872 
 H                    -2.63009   9.19546  -2.75447 
 H                    -3.01303   7.97565  -1.5252 
 C                    -3.00323   6.83983  -4.04423 
 H                    -2.74878   6.07353  -4.78315 
 H                    -3.83727   6.47279  -3.43802 
 H                    -3.35665   7.71885  -4.59152 
 C                     3.70746   7.69775   2.75161 
 H                     4.42643   8.43193   3.13054 
 H                     3.0216    8.22188   2.08018 
 H                     3.12448   7.32175   3.59759 
 C                     5.24776   7.10641   0.8418 
 H                     4.60179   7.6128    0.11908 
 H                     5.98981   7.83281   1.19005 
 H                     5.7745    6.30515   0.31502 
 C                     5.43801   5.91942   3.03039 
 H                     4.93329   5.52773   3.91905 
 H                     6.01557   5.10902   2.57484 
 H                     6.14841   6.68108   3.36552 
 C                     6.91877  -1.81692   4.18079 
 H                     6.16403  -1.3333    4.80712 
 H                     7.75988  -2.09044   4.8269 
 H                     7.27205  -1.07998   3.45318 
 C                     5.86515  -4.08555   4.51985 
 H                     5.08024  -3.66665   5.15541 
 H                     5.46     -4.97916   4.03596 
 H                     6.69112  -4.39253   5.1705 
 C                     7.50563  -3.7185    2.6738 
 H                     7.18056  -4.63191   2.16577 
 H                     7.9211   -3.0357    1.92586 
 H                     8.31615  -3.99231   3.35596 
 C                     6.11118  -2.67359  -4.71597 
 H                     6.72013  -2.81768  -3.81914 
 H                     6.68859  -3.03853  -5.5723 
 H                     5.9534   -1.59846  -4.84281 
 C                     4.00931  -3.22375  -5.94659 
 H                     3.04886  -3.74886  -5.95099 
 H                     3.8255   -2.16612  -6.15955 
 H                     4.60806  -3.62526  -6.76973 
 C                     5.01907  -4.92977  -4.43112 
 H                     4.07521  -5.47839  -4.35965 
 H                     5.58312  -5.32996  -5.28048 
 H                     5.59487  -5.13558  -3.52451 
 C                    -6.47096  -2.0693   -4.46406 
 H                    -6.14184  -1.09144  -4.82969 
 H                    -5.66669  -2.79169  -4.63597 
 H                    -7.3253   -2.37755  -5.07435 
 C                    -8.04723  -1.00776  -2.84579 
 H                    -8.8821   -1.29373  -3.49479 
 H                    -8.4252   -0.96061  -1.82075 
 H                    -7.7231   -0.0016   -3.12833 
 C                    -7.37484  -3.42468  -2.57308 
 H                    -6.56601  -4.15669  -2.65608 
 H                    -7.73624  -3.44468  -1.5413 
 H                    -8.19783  -3.74746  -3.22002 
 C                    -7.5082    0.00963   4.89749 
 H                    -8.02351  -0.19567   3.95497 
 H                    -8.24316  -0.08236   5.70466 
 H                    -7.15993   1.04652   4.86838 
 C                    -6.85184  -2.41292   5.1598 
 H                    -6.03052  -3.11869   5.31442 
 H                    -7.57414  -2.54203   5.97333 
 H                    -7.35187  -2.684     4.22579 
 C                    -5.71398  -0.64455   6.50475 
 H                    -4.88827  -1.32099   6.74635 
 H                    -5.34554   0.38471   6.55997 
 H                    -6.47492  -0.76367   7.28213 
 
 ITRead=  0  0  0  0  0  0  0  0  0  0  0  0  0  0  0  0  0  0  0  0
 ITRead=  0  0  0  0  0  0  0  0  0  0  0  0  0  0  0  0  0  0  0  0
 ITRead=  0  0  0  0  0  0  0  0  0  0  0  0  0  0  0  0  0  0  0  0
 ITRead=  0  0  0  0  0  0  0  0  0  0  0  0  0  0  0  0  0  0  0  0
 ITRead=  0  0  0  0  0  0  0  0  0  0  0  0  0  0  0  0  0  0  0  0
 ITRead=  0  0  0  0  0  0  0  0  0  0  0  0  0  0  0  0  0  0  0  0
 ITRead=  0  0  0  0  0  0  0  0  0  0  0  0  0  0  0  0  0  0  0  0
 ITRead=  0  0  0  0  0  0  0  0  0  0  0  0  0  0  0  0  0
 MicOpt= -1 -1 -1 -1 -1 -1 -1 -1 -1 -1 -1 -1 -1 -1 -1 -1 -1 -1 -1 -1
 MicOpt= -1 -1 -1 -1 -1 -1 -1 -1 -1 -1 -1 -1 -1 -1 -1 -1 -1 -1 -1 -1
 MicOpt= -1 -1 -1 -1 -1 -1 -1 -1 -1 -1 -1 -1 -1 -1 -1 -1 -1 -1 -1 -1
 MicOpt= -1 -1 -1 -1 -1 -1 -1 -1 -1 -1 -1 -1 -1 -1 -1 -1 -1 -1 -1 -1
 MicOpt= -1 -1 -1 -1 -1 -1 -1 -1 -1 -1 -1 -1 -1 -1 -1 -1 -1 -1 -1 -1
 MicOpt= -1 -1 -1 -1 -1 -1 -1 -1 -1 -1 -1 -1 -1 -1 -1 -1 -1 -1 -1 -1
 MicOpt= -1 -1 -1 -1 -1 -1 -1 -1 -1 -1 -1 -1 -1 -1 -1 -1 -1 -1 -1 -1
 MicOpt= -1 -1 -1 -1 -1 -1 -1 -1 -1 -1 -1 -1 -1 -1 -1 -1 -1
 NAtoms=    157 NQM=      157 NQMF=       0 NMMI=      0 NMMIF=      0
                NMic=       0 NMicF=      0.
                    Isotopes and Nuclear Properties:
 (Nuclear quadrupole moments (NQMom) in fm**2, nuclear magnetic moments (NMagM)
  in nuclear magnetons)

  Atom         1           2           3           4           5           6           7           8           9          10
 IAtWgt=          12          12          12          12          12          12          12           1          12          12
 AtmWgt=  12.0000000  12.0000000  12.0000000  12.0000000  12.0000000  12.0000000  12.0000000   1.0078250  12.0000000  12.0000000
 NucSpn=           0           0           0           0           0           0           0           1           0           0
 AtZEff=  -0.0000000  -0.0000000  -0.0000000  -0.0000000  -0.0000000  -0.0000000  -0.0000000  -0.0000000  -0.0000000  -0.0000000
 NQMom=    0.0000000   0.0000000   0.0000000   0.0000000   0.0000000   0.0000000   0.0000000   0.0000000   0.0000000   0.0000000
 NMagM=    0.0000000   0.0000000   0.0000000   0.0000000   0.0000000   0.0000000   0.0000000   2.7928460   0.0000000   0.0000000
 AtZNuc=   6.0000000   6.0000000   6.0000000   6.0000000   6.0000000   6.0000000   6.0000000   1.0000000   6.0000000   6.0000000

  Atom        11          12          13          14          15          16          17          18          19          20
 IAtWgt=           1          12          12           1           1          12           1           1          12          12
 AtmWgt=   1.0078250  12.0000000  12.0000000   1.0078250   1.0078250  12.0000000   1.0078250   1.0078250  12.0000000  12.0000000
 NucSpn=           1           0           0           1           1           0           1           1           0           0
 AtZEff=  -0.0000000  -0.0000000  -0.0000000  -0.0000000  -0.0000000  -0.0000000  -0.0000000  -0.0000000  -0.0000000  -0.0000000
 NQMom=    0.0000000   0.0000000   0.0000000   0.0000000   0.0000000   0.0000000   0.0000000   0.0000000   0.0000000   0.0000000
 NMagM=    2.7928460   0.0000000   0.0000000   2.7928460   2.7928460   0.0000000   2.7928460   2.7928460   0.0000000   0.0000000
 AtZNuc=   1.0000000   6.0000000   6.0000000   1.0000000   1.0000000   6.0000000   1.0000000   1.0000000   6.0000000   6.0000000

  Atom        21          22          23          24          25          26          27          28          29          30
 IAtWgt=          12          12          12          12          12          12          12          12          12          12
 AtmWgt=  12.0000000  12.0000000  12.0000000  12.0000000  12.0000000  12.0000000  12.0000000  12.0000000  12.0000000  12.0000000
 NucSpn=           0           0           0           0           0           0           0           0           0           0
 AtZEff=  -0.0000000  -0.0000000  -0.0000000  -0.0000000  -0.0000000  -0.0000000  -0.0000000  -0.0000000  -0.0000000  -0.0000000
 NQMom=    0.0000000   0.0000000   0.0000000   0.0000000   0.0000000   0.0000000   0.0000000   0.0000000   0.0000000   0.0000000
 NMagM=    0.0000000   0.0000000   0.0000000   0.0000000   0.0000000   0.0000000   0.0000000   0.0000000   0.0000000   0.0000000
 AtZNuc=   6.0000000   6.0000000   6.0000000   6.0000000   6.0000000   6.0000000   6.0000000   6.0000000   6.0000000   6.0000000

  Atom        31          32          33          34          35          36          37          38          39          40
 IAtWgt=          12           1          12          12           1          12          12           1           1          12
 AtmWgt=  12.0000000   1.0078250  12.0000000  12.0000000   1.0078250  12.0000000  12.0000000   1.0078250   1.0078250  12.0000000
 NucSpn=           0           1           0           0           1           0           0           1           1           0
 AtZEff=  -0.0000000  -0.0000000  -0.0000000  -0.0000000  -0.0000000  -0.0000000  -0.0000000  -0.0000000  -0.0000000  -0.0000000
 NQMom=    0.0000000   0.0000000   0.0000000   0.0000000   0.0000000   0.0000000   0.0000000   0.0000000   0.0000000   0.0000000
 NMagM=    0.0000000   2.7928460   0.0000000   0.0000000   2.7928460   0.0000000   0.0000000   2.7928460   2.7928460   0.0000000
 AtZNuc=   6.0000000   1.0000000   6.0000000   6.0000000   1.0000000   6.0000000   6.0000000   1.0000000   1.0000000   6.0000000

  Atom        41          42          43          44          45          46          47          48          49          50
 IAtWgt=           1           1          12          12          12          12          12          12          12           1
 AtmWgt=   1.0078250   1.0078250  12.0000000  12.0000000  12.0000000  12.0000000  12.0000000  12.0000000  12.0000000   1.0078250
 NucSpn=           1           1           0           0           0           0           0           0           0           1
 AtZEff=  -0.0000000  -0.0000000  -0.0000000  -0.0000000  -0.0000000  -0.0000000  -0.0000000  -0.0000000  -0.0000000  -0.0000000
 NQMom=    0.0000000   0.0000000   0.0000000   0.0000000   0.0000000   0.0000000   0.0000000   0.0000000   0.0000000   0.0000000
 NMagM=    2.7928460   2.7928460   0.0000000   0.0000000   0.0000000   0.0000000   0.0000000   0.0000000   0.0000000   2.7928460
 AtZNuc=   1.0000000   1.0000000   6.0000000   6.0000000   6.0000000   6.0000000   6.0000000   6.0000000   6.0000000   1.0000000

  Atom        51          52          53          54          55          56          57          58          59          60
 IAtWgt=          12          12           1          12          12           1           1          12           1           1
 AtmWgt=  12.0000000  12.0000000   1.0078250  12.0000000  12.0000000   1.0078250   1.0078250  12.0000000   1.0078250   1.0078250
 NucSpn=           0           0           1           0           0           1           1           0           1           1
 AtZEff=  -0.0000000  -0.0000000  -0.0000000  -0.0000000  -0.0000000  -0.0000000  -0.0000000  -0.0000000  -0.0000000  -0.0000000
 NQMom=    0.0000000   0.0000000   0.0000000   0.0000000   0.0000000   0.0000000   0.0000000   0.0000000   0.0000000   0.0000000
 NMagM=    0.0000000   0.0000000   2.7928460   0.0000000   0.0000000   2.7928460   2.7928460   0.0000000   2.7928460   2.7928460
 AtZNuc=   6.0000000   6.0000000   1.0000000   6.0000000   6.0000000   1.0000000   1.0000000   6.0000000   1.0000000   1.0000000

  Atom        61          62          63          64          65          66          67          68          69          70
 IAtWgt=          12          12          14          14          14          12          12          12          12          32
 AtmWgt=  12.0000000  12.0000000  14.0030740  14.0030740  14.0030740  12.0000000  12.0000000  12.0000000  12.0000000  31.9720718
 NucSpn=           0           0           2           2           2           0           0           0           0           0
 AtZEff=  -0.0000000  -0.0000000  -0.0000000  -0.0000000  -0.0000000  -0.0000000  -0.0000000  -0.0000000  -0.0000000  -0.0000000
 NQMom=    0.0000000   0.0000000   2.0440000   2.0440000   2.0440000   0.0000000   0.0000000   0.0000000   0.0000000   0.0000000
 NMagM=    0.0000000   0.0000000   0.4037610   0.4037610   0.4037610   0.0000000   0.0000000   0.0000000   0.0000000   0.0000000
 AtZNuc=   6.0000000   6.0000000   7.0000000   7.0000000   7.0000000   6.0000000   6.0000000   6.0000000   6.0000000  16.0000000

  Atom        71          72          73          74          75          76          77          78          79          80
 IAtWgt=          12          12          12          12           1          12           1          12           1           1
 AtmWgt=  12.0000000  12.0000000  12.0000000  12.0000000   1.0078250  12.0000000   1.0078250  12.0000000   1.0078250   1.0078250
 NucSpn=           0           0           0           0           1           0           1           0           1           1
 AtZEff=  -0.0000000  -0.0000000  -0.0000000  -0.0000000  -0.0000000  -0.0000000  -0.0000000  -0.0000000  -0.0000000  -0.0000000
 NQMom=    0.0000000   0.0000000   0.0000000   0.0000000   0.0000000   0.0000000   0.0000000   0.0000000   0.0000000   0.0000000
 NMagM=    0.0000000   0.0000000   0.0000000   0.0000000   2.7928460   0.0000000   2.7928460   0.0000000   2.7928460   2.7928460
 AtZNuc=   6.0000000   6.0000000   6.0000000   6.0000000   1.0000000   6.0000000   1.0000000   6.0000000   1.0000000   1.0000000

  Atom        81          82          83          84          85          86          87          88          89          90
 IAtWgt=           1          16          16           1           1          12           1           1           1          12
 AtmWgt=   1.0078250  15.9949146  15.9949146   1.0078250   1.0078250  12.0000000   1.0078250   1.0078250   1.0078250  12.0000000
 NucSpn=           1           0           0           1           1           0           1           1           1           0
 AtZEff=  -0.0000000  -0.0000000  -0.0000000  -0.0000000  -0.0000000  -0.0000000  -0.0000000  -0.0000000  -0.0000000  -0.0000000
 NQMom=    0.0000000   0.0000000   0.0000000   0.0000000   0.0000000   0.0000000   0.0000000   0.0000000   0.0000000   0.0000000
 NMagM=    2.7928460   0.0000000   0.0000000   2.7928460   2.7928460   0.0000000   2.7928460   2.7928460   2.7928460   0.0000000
 AtZNuc=   1.0000000   8.0000000   8.0000000   1.0000000   1.0000000   6.0000000   1.0000000   1.0000000   1.0000000   6.0000000

  Atom        91          92          93          94          95          96          97          98          99         100
 IAtWgt=           1           1           1          12           1           1           1          12           1           1
 AtmWgt=   1.0078250   1.0078250   1.0078250  12.0000000   1.0078250   1.0078250   1.0078250  12.0000000   1.0078250   1.0078250
 NucSpn=           1           1           1           0           1           1           1           0           1           1
 AtZEff=  -0.0000000  -0.0000000  -0.0000000  -0.0000000  -0.0000000  -0.0000000  -0.0000000  -0.0000000  -0.0000000  -0.0000000
 NQMom=    0.0000000   0.0000000   0.0000000   0.0000000   0.0000000   0.0000000   0.0000000   0.0000000   0.0000000   0.0000000
 NMagM=    2.7928460   2.7928460   2.7928460   0.0000000   2.7928460   2.7928460   2.7928460   0.0000000   2.7928460   2.7928460
 AtZNuc=   1.0000000   1.0000000   1.0000000   6.0000000   1.0000000   1.0000000   1.0000000   6.0000000   1.0000000   1.0000000

  Atom       101         102         103         104         105         106         107         108         109         110
 IAtWgt=           1          12           1           1           1          12           1           1           1          12
 AtmWgt=   1.0078250  12.0000000   1.0078250   1.0078250   1.0078250  12.0000000   1.0078250   1.0078250   1.0078250  12.0000000
 NucSpn=           1           0           1           1           1           0           1           1           1           0
 AtZEff=  -0.0000000  -0.0000000  -0.0000000  -0.0000000  -0.0000000  -0.0000000  -0.0000000  -0.0000000  -0.0000000  -0.0000000
 NQMom=    0.0000000   0.0000000   0.0000000   0.0000000   0.0000000   0.0000000   0.0000000   0.0000000   0.0000000   0.0000000
 NMagM=    2.7928460   0.0000000   2.7928460   2.7928460   2.7928460   0.0000000   2.7928460   2.7928460   2.7928460   0.0000000
 AtZNuc=   1.0000000   6.0000000   1.0000000   1.0000000   1.0000000   6.0000000   1.0000000   1.0000000   1.0000000   6.0000000

  Atom       111         112         113         114         115         116         117         118         119         120
 IAtWgt=           1           1           1          12           1           1           1          12           1           1
 AtmWgt=   1.0078250   1.0078250   1.0078250  12.0000000   1.0078250   1.0078250   1.0078250  12.0000000   1.0078250   1.0078250
 NucSpn=           1           1           1           0           1           1           1           0           1           1
 AtZEff=  -0.0000000  -0.0000000  -0.0000000  -0.0000000  -0.0000000  -0.0000000  -0.0000000  -0.0000000  -0.0000000  -0.0000000
 NQMom=    0.0000000   0.0000000   0.0000000   0.0000000   0.0000000   0.0000000   0.0000000   0.0000000   0.0000000   0.0000000
 NMagM=    2.7928460   2.7928460   2.7928460   0.0000000   2.7928460   2.7928460   2.7928460   0.0000000   2.7928460   2.7928460
 AtZNuc=   1.0000000   1.0000000   1.0000000   6.0000000   1.0000000   1.0000000   1.0000000   6.0000000   1.0000000   1.0000000

  Atom       121         122         123         124         125         126         127         128         129         130
 IAtWgt=           1          12           1           1           1          12           1           1           1          12
 AtmWgt=   1.0078250  12.0000000   1.0078250   1.0078250   1.0078250  12.0000000   1.0078250   1.0078250   1.0078250  12.0000000
 NucSpn=           1           0           1           1           1           0           1           1           1           0
 AtZEff=  -0.0000000  -0.0000000  -0.0000000  -0.0000000  -0.0000000  -0.0000000  -0.0000000  -0.0000000  -0.0000000  -0.0000000
 NQMom=    0.0000000   0.0000000   0.0000000   0.0000000   0.0000000   0.0000000   0.0000000   0.0000000   0.0000000   0.0000000
 NMagM=    2.7928460   0.0000000   2.7928460   2.7928460   2.7928460   0.0000000   2.7928460   2.7928460   2.7928460   0.0000000
 AtZNuc=   1.0000000   6.0000000   1.0000000   1.0000000   1.0000000   6.0000000   1.0000000   1.0000000   1.0000000   6.0000000

  Atom       131         132         133         134         135         136         137         138         139         140
 IAtWgt=           1           1           1          12           1           1           1          12           1           1
 AtmWgt=   1.0078250   1.0078250   1.0078250  12.0000000   1.0078250   1.0078250   1.0078250  12.0000000   1.0078250   1.0078250
 NucSpn=           1           1           1           0           1           1           1           0           1           1
 AtZEff=  -0.0000000  -0.0000000  -0.0000000  -0.0000000  -0.0000000  -0.0000000  -0.0000000  -0.0000000  -0.0000000  -0.0000000
 NQMom=    0.0000000   0.0000000   0.0000000   0.0000000   0.0000000   0.0000000   0.0000000   0.0000000   0.0000000   0.0000000
 NMagM=    2.7928460   2.7928460   2.7928460   0.0000000   2.7928460   2.7928460   2.7928460   0.0000000   2.7928460   2.7928460
 AtZNuc=   1.0000000   1.0000000   1.0000000   6.0000000   1.0000000   1.0000000   1.0000000   6.0000000   1.0000000   1.0000000

  Atom       141         142         143         144         145         146         147         148         149         150
 IAtWgt=           1          12           1           1           1          12           1           1           1          12
 AtmWgt=   1.0078250  12.0000000   1.0078250   1.0078250   1.0078250  12.0000000   1.0078250   1.0078250   1.0078250  12.0000000
 NucSpn=           1           0           1           1           1           0           1           1           1           0
 AtZEff=  -0.0000000  -0.0000000  -0.0000000  -0.0000000  -0.0000000  -0.0000000  -0.0000000  -0.0000000  -0.0000000  -0.0000000
 NQMom=    0.0000000   0.0000000   0.0000000   0.0000000   0.0000000   0.0000000   0.0000000   0.0000000   0.0000000   0.0000000
 NMagM=    2.7928460   0.0000000   2.7928460   2.7928460   2.7928460   0.0000000   2.7928460   2.7928460   2.7928460   0.0000000
 AtZNuc=   1.0000000   6.0000000   1.0000000   1.0000000   1.0000000   6.0000000   1.0000000   1.0000000   1.0000000   6.0000000

  Atom       151         152         153         154         155         156         157
 IAtWgt=           1           1           1          12           1           1           1
 AtmWgt=   1.0078250   1.0078250   1.0078250  12.0000000   1.0078250   1.0078250   1.0078250
 NucSpn=           1           1           1           0           1           1           1
 AtZEff=  -0.0000000  -0.0000000  -0.0000000  -0.0000000  -0.0000000  -0.0000000  -0.0000000
 NQMom=    0.0000000   0.0000000   0.0000000   0.0000000   0.0000000   0.0000000   0.0000000
 NMagM=    2.7928460   2.7928460   2.7928460   0.0000000   2.7928460   2.7928460   2.7928460
 AtZNuc=   1.0000000   1.0000000   1.0000000   6.0000000   1.0000000   1.0000000   1.0000000
 Leave Link  101 at Wed Nov  6 23:24:11 2024, MaxMem=  2147483648 cpu:               7.0 elap:               1.3
 (Enter /apps/gaussian/g16/l103.exe)

 GradGradGradGradGradGradGradGradGradGradGradGradGradGradGradGradGradGrad
 Berny optimization.
 Initialization pass.
                           ----------------------------
                           !    Initial Parameters    !
                           ! (Angstroms and Degrees)  !
 --------------------------                            --------------------------
 ! Name  Definition              Value          Derivative Info.                !
 --------------------------------------------------------------------------------
 ! R1    R(1,3)                  1.392          estimate D2E/DX2                !
 ! R2    R(1,4)                  1.4111         estimate D2E/DX2                !
 ! R3    R(1,63)                 1.4027         estimate D2E/DX2                !
 ! R4    R(2,5)                  1.392          estimate D2E/DX2                !
 ! R5    R(2,6)                  1.4113         estimate D2E/DX2                !
 ! R6    R(2,63)                 1.4026         estimate D2E/DX2                !
 ! R7    R(3,7)                  1.3937         estimate D2E/DX2                !
 ! R8    R(3,8)                  1.0838         estimate D2E/DX2                !
 ! R9    R(4,6)                  1.4507         estimate D2E/DX2                !
 ! R10   R(4,9)                  1.3936         estimate D2E/DX2                !
 ! R11   R(5,10)                 1.3938         estimate D2E/DX2                !
 ! R12   R(5,11)                 1.0837         estimate D2E/DX2                !
 ! R13   R(6,12)                 1.3936         estimate D2E/DX2                !
 ! R14   R(7,13)                 1.4077         estimate D2E/DX2                !
 ! R15   R(7,14)                 1.0829         estimate D2E/DX2                !
 ! R16   R(9,13)                 1.3994         estimate D2E/DX2                !
 ! R17   R(9,15)                 1.0855         estimate D2E/DX2                !
 ! R18   R(10,16)                1.4076         estimate D2E/DX2                !
 ! R19   R(10,17)                1.0829         estimate D2E/DX2                !
 ! R20   R(12,16)                1.3994         estimate D2E/DX2                !
 ! R21   R(12,18)                1.0855         estimate D2E/DX2                !
 ! R22   R(13,61)                1.5394         estimate D2E/DX2                !
 ! R23   R(16,62)                1.5394         estimate D2E/DX2                !
 ! R24   R(19,20)                1.3952         estimate D2E/DX2                !
 ! R25   R(19,24)                1.396          estimate D2E/DX2                !
 ! R26   R(19,63)                1.4027         estimate D2E/DX2                !
 ! R27   R(20,21)                1.3951         estimate D2E/DX2                !
 ! R28   R(20,85)                1.083          estimate D2E/DX2                !
 ! R29   R(21,22)                1.4094         estimate D2E/DX2                !
 ! R30   R(21,64)                1.4151         estimate D2E/DX2                !
 ! R31   R(22,23)                1.4078         estimate D2E/DX2                !
 ! R32   R(22,70)                1.8323         estimate D2E/DX2                !
 ! R33   R(23,24)                1.3919         estimate D2E/DX2                !
 ! R34   R(23,65)                1.4212         estimate D2E/DX2                !
 ! R35   R(24,84)                1.0834         estimate D2E/DX2                !
 ! R36   R(25,27)                1.3893         estimate D2E/DX2                !
 ! R37   R(25,28)                1.4119         estimate D2E/DX2                !
 ! R38   R(25,64)                1.3918         estimate D2E/DX2                !
 ! R39   R(26,29)                1.3908         estimate D2E/DX2                !
 ! R40   R(26,30)                1.4126         estimate D2E/DX2                !
 ! R41   R(26,64)                1.3891         estimate D2E/DX2                !
 ! R42   R(27,31)                1.3932         estimate D2E/DX2                !
 ! R43   R(27,32)                1.0844         estimate D2E/DX2                !
 ! R44   R(28,30)                1.4511         estimate D2E/DX2                !
 ! R45   R(28,33)                1.3937         estimate D2E/DX2                !
 ! R46   R(29,34)                1.395          estimate D2E/DX2                !
 ! R47   R(29,35)                1.0852         estimate D2E/DX2                !
 ! R48   R(30,36)                1.3932         estimate D2E/DX2                !
 ! R49   R(31,37)                1.4087         estimate D2E/DX2                !
 ! R50   R(31,38)                1.083          estimate D2E/DX2                !
 ! R51   R(33,37)                1.3997         estimate D2E/DX2                !
 ! R52   R(33,39)                1.0856         estimate D2E/DX2                !
 ! R53   R(34,40)                1.4079         estimate D2E/DX2                !
 ! R54   R(34,41)                1.0833         estimate D2E/DX2                !
 ! R55   R(36,40)                1.401          estimate D2E/DX2                !
 ! R56   R(36,42)                1.0856         estimate D2E/DX2                !
 ! R57   R(37,66)                1.5399         estimate D2E/DX2                !
 ! R58   R(40,67)                1.5397         estimate D2E/DX2                !
 ! R59   R(43,45)                1.3927         estimate D2E/DX2                !
 ! R60   R(43,46)                1.4081         estimate D2E/DX2                !
 ! R61   R(43,65)                1.3989         estimate D2E/DX2                !
 ! R62   R(44,47)                1.3892         estimate D2E/DX2                !
 ! R63   R(44,48)                1.4109         estimate D2E/DX2                !
 ! R64   R(44,65)                1.3979         estimate D2E/DX2                !
 ! R65   R(45,49)                1.3881         estimate D2E/DX2                !
 ! R66   R(45,50)                1.083          estimate D2E/DX2                !
 ! R67   R(46,48)                1.4512         estimate D2E/DX2                !
 ! R68   R(46,51)                1.3993         estimate D2E/DX2                !
 ! R69   R(47,52)                1.3926         estimate D2E/DX2                !
 ! R70   R(47,53)                1.0839         estimate D2E/DX2                !
 ! R71   R(48,54)                1.3943         estimate D2E/DX2                !
 ! R72   R(49,55)                1.4141         estimate D2E/DX2                !
 ! R73   R(49,56)                1.0852         estimate D2E/DX2                !
 ! R74   R(51,55)                1.3947         estimate D2E/DX2                !
 ! R75   R(51,57)                1.0834         estimate D2E/DX2                !
 ! R76   R(52,58)                1.4086         estimate D2E/DX2                !
 ! R77   R(52,59)                1.0829         estimate D2E/DX2                !
 ! R78   R(54,58)                1.3998         estimate D2E/DX2                !
 ! R79   R(54,60)                1.0856         estimate D2E/DX2                !
 ! R80   R(55,69)                1.5386         estimate D2E/DX2                !
 ! R81   R(58,68)                1.5397         estimate D2E/DX2                !
 ! R82   R(61,98)                1.5454         estimate D2E/DX2                !
 ! R83   R(61,102)               1.5454         estimate D2E/DX2                !
 ! R84   R(61,106)               1.5393         estimate D2E/DX2                !
 ! R85   R(62,86)                1.5454         estimate D2E/DX2                !
 ! R86   R(62,90)                1.5454         estimate D2E/DX2                !
 ! R87   R(62,94)                1.5393         estimate D2E/DX2                !
 ! R88   R(66,146)               1.5453         estimate D2E/DX2                !
 ! R89   R(66,150)               1.5454         estimate D2E/DX2                !
 ! R90   R(66,154)               1.5393         estimate D2E/DX2                !
 ! R91   R(67,134)               1.5393         estimate D2E/DX2                !
 ! R92   R(67,138)               1.5453         estimate D2E/DX2                !
 ! R93   R(67,142)               1.5454         estimate D2E/DX2                !
 ! R94   R(68,122)               1.5453         estimate D2E/DX2                !
 ! R95   R(68,126)               1.5392         estimate D2E/DX2                !
 ! R96   R(68,130)               1.5453         estimate D2E/DX2                !
 ! R97   R(69,110)               1.5454         estimate D2E/DX2                !
 ! R98   R(69,114)               1.5455         estimate D2E/DX2                !
 ! R99   R(69,118)               1.5391         estimate D2E/DX2                !
 ! R100  R(70,71)                1.7889         estimate D2E/DX2                !
 ! R101  R(70,82)                1.4627         estimate D2E/DX2                !
 ! R102  R(70,83)                1.4587         estimate D2E/DX2                !
 ! R103  R(71,72)                1.3954         estimate D2E/DX2                !
 ! R104  R(71,73)                1.3923         estimate D2E/DX2                !
 ! R105  R(72,74)                1.3925         estimate D2E/DX2                !
 ! R106  R(72,75)                1.0851         estimate D2E/DX2                !
 ! R107  R(73,76)                1.393          estimate D2E/DX2                !
 ! R108  R(73,77)                1.0837         estimate D2E/DX2                !
 ! R109  R(74,78)                1.3961         estimate D2E/DX2                !
 ! R110  R(74,79)                1.0845         estimate D2E/DX2                !
 ! R111  R(76,78)                1.3945         estimate D2E/DX2                !
 ! R112  R(76,80)                1.0836         estimate D2E/DX2                !
 ! R113  R(78,81)                1.0846         estimate D2E/DX2                !
 ! R114  R(86,87)                1.0952         estimate D2E/DX2                !
 ! R115  R(86,88)                1.0936         estimate D2E/DX2                !
 ! R116  R(86,89)                1.0941         estimate D2E/DX2                !
 ! R117  R(90,91)                1.0936         estimate D2E/DX2                !
 ! R118  R(90,92)                1.0952         estimate D2E/DX2                !
 ! R119  R(90,93)                1.094          estimate D2E/DX2                !
 ! R120  R(94,95)                1.0945         estimate D2E/DX2                !
 ! R121  R(94,96)                1.0944         estimate D2E/DX2                !
 ! R122  R(94,97)                1.0941         estimate D2E/DX2                !
 ! R123  R(98,99)                1.0952         estimate D2E/DX2                !
 ! R124  R(98,100)               1.0936         estimate D2E/DX2                !
 ! R125  R(98,101)               1.094          estimate D2E/DX2                !
 ! R126  R(102,103)              1.0936         estimate D2E/DX2                !
 ! R127  R(102,104)              1.0952         estimate D2E/DX2                !
 ! R128  R(102,105)              1.0941         estimate D2E/DX2                !
 ! R129  R(106,107)              1.0945         estimate D2E/DX2                !
 ! R130  R(106,108)              1.0945         estimate D2E/DX2                !
 ! R131  R(106,109)              1.0941         estimate D2E/DX2                !
 ! R132  R(110,111)              1.0935         estimate D2E/DX2                !
 ! R133  R(110,112)              1.0953         estimate D2E/DX2                !
 ! R134  R(110,113)              1.0942         estimate D2E/DX2                !
 ! R135  R(114,115)              1.0934         estimate D2E/DX2                !
 ! R136  R(114,116)              1.094          estimate D2E/DX2                !
 ! R137  R(114,117)              1.0954         estimate D2E/DX2                !
 ! R138  R(118,119)              1.0946         estimate D2E/DX2                !
 ! R139  R(118,120)              1.0946         estimate D2E/DX2                !
 ! R140  R(118,121)              1.0942         estimate D2E/DX2                !
 ! R141  R(122,123)              1.0936         estimate D2E/DX2                !
 ! R142  R(122,124)              1.0954         estimate D2E/DX2                !
 ! R143  R(122,125)              1.094          estimate D2E/DX2                !
 ! R144  R(126,127)              1.0946         estimate D2E/DX2                !
 ! R145  R(126,128)              1.0944         estimate D2E/DX2                !
 ! R146  R(126,129)              1.0942         estimate D2E/DX2                !
 ! R147  R(130,131)              1.0941         estimate D2E/DX2                !
 ! R148  R(130,132)              1.0953         estimate D2E/DX2                !
 ! R149  R(130,133)              1.0935         estimate D2E/DX2                !
 ! R150  R(134,135)              1.0946         estimate D2E/DX2                !
 ! R151  R(134,136)              1.0946         estimate D2E/DX2                !
 ! R152  R(134,137)              1.0942         estimate D2E/DX2                !
 ! R153  R(138,139)              1.0954         estimate D2E/DX2                !
 ! R154  R(138,140)              1.0935         estimate D2E/DX2                !
 ! R155  R(138,141)              1.0942         estimate D2E/DX2                !
 ! R156  R(142,143)              1.094          estimate D2E/DX2                !
 ! R157  R(142,144)              1.0934         estimate D2E/DX2                !
 ! R158  R(142,145)              1.0955         estimate D2E/DX2                !
 ! R159  R(146,147)              1.0936         estimate D2E/DX2                !
 ! R160  R(146,148)              1.0955         estimate D2E/DX2                !
 ! R161  R(146,149)              1.0942         estimate D2E/DX2                !
 ! R162  R(150,151)              1.0939         estimate D2E/DX2                !
 ! R163  R(150,152)              1.0955         estimate D2E/DX2                !
 ! R164  R(150,153)              1.0936         estimate D2E/DX2                !
 ! R165  R(154,155)              1.0944         estimate D2E/DX2                !
 ! R166  R(154,156)              1.0946         estimate D2E/DX2                !
 ! R167  R(154,157)              1.0943         estimate D2E/DX2                !
 ! A1    A(3,1,4)              120.8587         estimate D2E/DX2                !
 ! A2    A(3,1,63)             130.1765         estimate D2E/DX2                !
 ! A3    A(4,1,63)             108.9118         estimate D2E/DX2                !
 ! A4    A(5,2,6)              120.807          estimate D2E/DX2                !
 ! A5    A(5,2,63)             130.2429         estimate D2E/DX2                !
 ! A6    A(6,2,63)             108.8929         estimate D2E/DX2                !
 ! A7    A(1,3,7)              117.8947         estimate D2E/DX2                !
 ! A8    A(1,3,8)              121.9997         estimate D2E/DX2                !
 ! A9    A(7,3,8)              120.1039         estimate D2E/DX2                !
 ! A10   A(1,4,6)              106.9461         estimate D2E/DX2                !
 ! A11   A(1,4,9)              119.8638         estimate D2E/DX2                !
 ! A12   A(6,4,9)              133.1842         estimate D2E/DX2                !
 ! A13   A(2,5,10)             117.9348         estimate D2E/DX2                !
 ! A14   A(2,5,11)             121.9848         estimate D2E/DX2                !
 ! A15   A(10,5,11)            120.0786         estimate D2E/DX2                !
 ! A16   A(2,6,4)              106.9596         estimate D2E/DX2                !
 ! A17   A(2,6,12)             119.8781         estimate D2E/DX2                !
 ! A18   A(4,6,12)             133.1543         estimate D2E/DX2                !
 ! A19   A(3,7,13)             122.8577         estimate D2E/DX2                !
 ! A20   A(3,7,14)             117.3271         estimate D2E/DX2                !
 ! A21   A(13,7,14)            119.815          estimate D2E/DX2                !
 ! A22   A(4,9,13)             120.6208         estimate D2E/DX2                !
 ! A23   A(4,9,15)             118.9917         estimate D2E/DX2                !
 ! A24   A(13,9,15)            120.3869         estimate D2E/DX2                !
 ! A25   A(5,10,16)            122.8522         estimate D2E/DX2                !
 ! A26   A(5,10,17)            117.3191         estimate D2E/DX2                !
 ! A27   A(16,10,17)           119.8286         estimate D2E/DX2                !
 ! A28   A(6,12,16)            120.639          estimate D2E/DX2                !
 ! A29   A(6,12,18)            118.9791         estimate D2E/DX2                !
 ! A30   A(16,12,18)           120.3811         estimate D2E/DX2                !
 ! A31   A(7,13,9)             117.8874         estimate D2E/DX2                !
 ! A32   A(7,13,61)            122.546          estimate D2E/DX2                !
 ! A33   A(9,13,61)            119.5659         estimate D2E/DX2                !
 ! A34   A(10,16,12)           117.8699         estimate D2E/DX2                !
 ! A35   A(10,16,62)           122.5697         estimate D2E/DX2                !
 ! A36   A(12,16,62)           119.5595         estimate D2E/DX2                !
 ! A37   A(20,19,24)           118.6262         estimate D2E/DX2                !
 ! A38   A(20,19,63)           120.8205         estimate D2E/DX2                !
 ! A39   A(24,19,63)           120.5467         estimate D2E/DX2                !
 ! A40   A(19,20,21)           121.1734         estimate D2E/DX2                !
 ! A41   A(19,20,85)           120.7109         estimate D2E/DX2                !
 ! A42   A(21,20,85)           118.1137         estimate D2E/DX2                !
 ! A43   A(20,21,22)           120.416          estimate D2E/DX2                !
 ! A44   A(20,21,64)           116.1354         estimate D2E/DX2                !
 ! A45   A(22,21,64)           123.4359         estimate D2E/DX2                !
 ! A46   A(21,22,23)           117.9507         estimate D2E/DX2                !
 ! A47   A(21,22,70)           122.4874         estimate D2E/DX2                !
 ! A48   A(23,22,70)           119.3199         estimate D2E/DX2                !
 ! A49   A(22,23,24)           121.0207         estimate D2E/DX2                !
 ! A50   A(22,23,65)           122.0071         estimate D2E/DX2                !
 ! A51   A(24,23,65)           116.868          estimate D2E/DX2                !
 ! A52   A(19,24,23)           120.7406         estimate D2E/DX2                !
 ! A53   A(19,24,84)           120.6027         estimate D2E/DX2                !
 ! A54   A(23,24,84)           118.642          estimate D2E/DX2                !
 ! A55   A(27,25,28)           121.4791         estimate D2E/DX2                !
 ! A56   A(27,25,64)           129.6699         estimate D2E/DX2                !
 ! A57   A(28,25,64)           108.8508         estimate D2E/DX2                !
 ! A58   A(29,26,30)           121.4092         estimate D2E/DX2                !
 ! A59   A(29,26,64)           129.605          estimate D2E/DX2                !
 ! A60   A(30,26,64)           108.9796         estimate D2E/DX2                !
 ! A61   A(25,27,31)           117.6314         estimate D2E/DX2                !
 ! A62   A(25,27,32)           121.5158         estimate D2E/DX2                !
 ! A63   A(31,27,32)           120.8498         estimate D2E/DX2                !
 ! A64   A(25,28,30)           106.7391         estimate D2E/DX2                !
 ! A65   A(25,28,33)           119.4362         estimate D2E/DX2                !
 ! A66   A(30,28,33)           133.8247         estimate D2E/DX2                !
 ! A67   A(26,29,34)           117.7638         estimate D2E/DX2                !
 ! A68   A(26,29,35)           121.4504         estimate D2E/DX2                !
 ! A69   A(34,29,35)           120.7857         estimate D2E/DX2                !
 ! A70   A(26,30,28)           106.6082         estimate D2E/DX2                !
 ! A71   A(26,30,36)           119.3417         estimate D2E/DX2                !
 ! A72   A(28,30,36)           134.0498         estimate D2E/DX2                !
 ! A73   A(27,31,37)           122.7617         estimate D2E/DX2                !
 ! A74   A(27,31,38)           117.4806         estimate D2E/DX2                !
 ! A75   A(37,31,38)           119.7572         estimate D2E/DX2                !
 ! A76   A(28,33,37)           120.5975         estimate D2E/DX2                !
 ! A77   A(28,33,39)           119.0582         estimate D2E/DX2                !
 ! A78   A(37,33,39)           120.3437         estimate D2E/DX2                !
 ! A79   A(29,34,40)           122.6221         estimate D2E/DX2                !
 ! A80   A(29,34,41)           117.5738         estimate D2E/DX2                !
 ! A81   A(40,34,41)           119.8037         estimate D2E/DX2                !
 ! A82   A(30,36,40)           120.7667         estimate D2E/DX2                !
 ! A83   A(30,36,42)           118.9861         estimate D2E/DX2                !
 ! A84   A(40,36,42)           120.2468         estimate D2E/DX2                !
 ! A85   A(31,37,33)           118.0937         estimate D2E/DX2                !
 ! A86   A(31,37,66)           122.4882         estimate D2E/DX2                !
 ! A87   A(33,37,66)           119.4176         estimate D2E/DX2                !
 ! A88   A(34,40,36)           118.0913         estimate D2E/DX2                !
 ! A89   A(34,40,67)           122.4836         estimate D2E/DX2                !
 ! A90   A(36,40,67)           119.4251         estimate D2E/DX2                !
 ! A91   A(45,43,46)           121.3875         estimate D2E/DX2                !
 ! A92   A(45,43,65)           129.4506         estimate D2E/DX2                !
 ! A93   A(46,43,65)           109.1612         estimate D2E/DX2                !
 ! A94   A(47,44,48)           121.4433         estimate D2E/DX2                !
 ! A95   A(47,44,65)           129.3964         estimate D2E/DX2                !
 ! A96   A(48,44,65)           109.1379         estimate D2E/DX2                !
 ! A97   A(43,45,49)           117.4395         estimate D2E/DX2                !
 ! A98   A(43,45,50)           121.295          estimate D2E/DX2                !
 ! A99   A(49,45,50)           121.237          estimate D2E/DX2                !
 ! A100  A(43,46,48)           106.8181         estimate D2E/DX2                !
 ! A101  A(43,46,51)           119.7803         estimate D2E/DX2                !
 ! A102  A(48,46,51)           133.3929         estimate D2E/DX2                !
 ! A103  A(44,47,52)           117.7198         estimate D2E/DX2                !
 ! A104  A(44,47,53)           121.4332         estimate D2E/DX2                !
 ! A105  A(52,47,53)           120.8382         estimate D2E/DX2                !
 ! A106  A(44,48,46)           106.6693         estimate D2E/DX2                !
 ! A107  A(44,48,54)           119.4441         estimate D2E/DX2                !
 ! A108  A(46,48,54)           133.8865         estimate D2E/DX2                !
 ! A109  A(45,49,55)           123.0397         estimate D2E/DX2                !
 ! A110  A(45,49,56)           117.7036         estimate D2E/DX2                !
 ! A111  A(55,49,56)           119.2531         estimate D2E/DX2                !
 ! A112  A(46,51,55)           120.2475         estimate D2E/DX2                !
 ! A113  A(46,51,57)           118.8454         estimate D2E/DX2                !
 ! A114  A(55,51,57)           120.9048         estimate D2E/DX2                !
 ! A115  A(47,52,58)           122.6863         estimate D2E/DX2                !
 ! A116  A(47,52,59)           117.5225         estimate D2E/DX2                !
 ! A117  A(58,52,59)           119.7902         estimate D2E/DX2                !
 ! A118  A(48,54,58)           120.5656         estimate D2E/DX2                !
 ! A119  A(48,54,60)           119.0531         estimate D2E/DX2                !
 ! A120  A(58,54,60)           120.381          estimate D2E/DX2                !
 ! A121  A(49,55,51)           118.0999         estimate D2E/DX2                !
 ! A122  A(49,55,69)           119.244          estimate D2E/DX2                !
 ! A123  A(51,55,69)           122.656          estimate D2E/DX2                !
 ! A124  A(52,58,54)           118.1271         estimate D2E/DX2                !
 ! A125  A(52,58,68)           122.4299         estimate D2E/DX2                !
 ! A126  A(54,58,68)           119.4423         estimate D2E/DX2                !
 ! A127  A(13,61,98)           109.4003         estimate D2E/DX2                !
 ! A128  A(13,61,102)          109.3381         estimate D2E/DX2                !
 ! A129  A(13,61,106)          112.3841         estimate D2E/DX2                !
 ! A130  A(98,61,102)          109.4847         estimate D2E/DX2                !
 ! A131  A(98,61,106)          108.0933         estimate D2E/DX2                !
 ! A132  A(102,61,106)         108.094          estimate D2E/DX2                !
 ! A133  A(16,62,86)           109.3928         estimate D2E/DX2                !
 ! A134  A(16,62,90)           109.341          estimate D2E/DX2                !
 ! A135  A(16,62,94)           112.3879         estimate D2E/DX2                !
 ! A136  A(86,62,90)           109.486          estimate D2E/DX2                !
 ! A137  A(86,62,94)           108.094          estimate D2E/DX2                !
 ! A138  A(90,62,94)           108.0929         estimate D2E/DX2                !
 ! A139  A(1,63,2)             108.2889         estimate D2E/DX2                !
 ! A140  A(1,63,19)            125.714          estimate D2E/DX2                !
 ! A141  A(2,63,19)            125.9947         estimate D2E/DX2                !
 ! A142  A(21,64,25)           126.8511         estimate D2E/DX2                !
 ! A143  A(21,64,26)           124.3053         estimate D2E/DX2                !
 ! A144  A(25,64,26)           108.8207         estimate D2E/DX2                !
 ! A145  A(23,65,43)           125.2881         estimate D2E/DX2                !
 ! A146  A(23,65,44)           122.8562         estimate D2E/DX2                !
 ! A147  A(43,65,44)           108.0439         estimate D2E/DX2                !
 ! A148  A(37,66,146)          109.448          estimate D2E/DX2                !
 ! A149  A(37,66,150)          109.3744         estimate D2E/DX2                !
 ! A150  A(37,66,154)          112.4281         estimate D2E/DX2                !
 ! A151  A(146,66,150)         109.4706         estimate D2E/DX2                !
 ! A152  A(146,66,154)         108.0339         estimate D2E/DX2                !
 ! A153  A(150,66,154)         108.0361         estimate D2E/DX2                !
 ! A154  A(40,67,134)          112.4212         estimate D2E/DX2                !
 ! A155  A(40,67,138)          109.4613         estimate D2E/DX2                !
 ! A156  A(40,67,142)          109.3838         estimate D2E/DX2                !
 ! A157  A(134,67,138)         108.0344         estimate D2E/DX2                !
 ! A158  A(134,67,142)         108.0234         estimate D2E/DX2                !
 ! A159  A(138,67,142)         109.4665         estimate D2E/DX2                !
 ! A160  A(58,68,122)          109.4141         estimate D2E/DX2                !
 ! A161  A(58,68,126)          112.4143         estimate D2E/DX2                !
 ! A162  A(58,68,130)          109.4443         estimate D2E/DX2                !
 ! A163  A(122,68,126)         108.0956         estimate D2E/DX2                !
 ! A164  A(122,68,130)         109.4251         estimate D2E/DX2                !
 ! A165  A(126,68,130)         107.9959         estimate D2E/DX2                !
 ! A166  A(55,69,110)          109.4719         estimate D2E/DX2                !
 ! A167  A(55,69,114)          109.4477         estimate D2E/DX2                !
 ! A168  A(55,69,118)          112.2341         estimate D2E/DX2                !
 ! A169  A(110,69,114)         109.5056         estimate D2E/DX2                !
 ! A170  A(110,69,118)         108.0531         estimate D2E/DX2                !
 ! A171  A(114,69,118)         108.0821         estimate D2E/DX2                !
 ! A172  A(22,70,71)           105.076          estimate D2E/DX2                !
 ! A173  A(22,70,82)           105.801          estimate D2E/DX2                !
 ! A174  A(22,70,83)           108.7591         estimate D2E/DX2                !
 ! A175  A(71,70,82)           108.9853         estimate D2E/DX2                !
 ! A176  A(71,70,83)           107.0113         estimate D2E/DX2                !
 ! A177  A(82,70,83)           120.2459         estimate D2E/DX2                !
 ! A178  A(70,71,72)           118.527          estimate D2E/DX2                !
 ! A179  A(70,71,73)           119.3786         estimate D2E/DX2                !
 ! A180  A(72,71,73)           122.0361         estimate D2E/DX2                !
 ! A181  A(71,72,74)           118.5976         estimate D2E/DX2                !
 ! A182  A(71,72,75)           120.3873         estimate D2E/DX2                !
 ! A183  A(74,72,75)           121.0073         estimate D2E/DX2                !
 ! A184  A(71,73,76)           118.6981         estimate D2E/DX2                !
 ! A185  A(71,73,77)           119.7388         estimate D2E/DX2                !
 ! A186  A(76,73,77)           121.5573         estimate D2E/DX2                !
 ! A187  A(72,74,78)           120.0894         estimate D2E/DX2                !
 ! A188  A(72,74,79)           119.6797         estimate D2E/DX2                !
 ! A189  A(78,74,79)           120.2283         estimate D2E/DX2                !
 ! A190  A(73,76,78)           120.0752         estimate D2E/DX2                !
 ! A191  A(73,76,80)           119.6136         estimate D2E/DX2                !
 ! A192  A(78,76,80)           120.3052         estimate D2E/DX2                !
 ! A193  A(74,78,76)           120.4894         estimate D2E/DX2                !
 ! A194  A(74,78,81)           119.7363         estimate D2E/DX2                !
 ! A195  A(76,78,81)           119.7739         estimate D2E/DX2                !
 ! A196  A(62,86,87)           110.4156         estimate D2E/DX2                !
 ! A197  A(62,86,88)           111.8396         estimate D2E/DX2                !
 ! A198  A(62,86,89)           110.8237         estimate D2E/DX2                !
 ! A199  A(87,86,88)           107.6283         estimate D2E/DX2                !
 ! A200  A(87,86,89)           108.219          estimate D2E/DX2                !
 ! A201  A(88,86,89)           107.7707         estimate D2E/DX2                !
 ! A202  A(62,90,91)           111.8127         estimate D2E/DX2                !
 ! A203  A(62,90,92)           110.4243         estimate D2E/DX2                !
 ! A204  A(62,90,93)           110.8218         estimate D2E/DX2                !
 ! A205  A(91,90,92)           107.6488         estimate D2E/DX2                !
 ! A206  A(91,90,93)           107.772          estimate D2E/DX2                !
 ! A207  A(92,90,93)           108.2184         estimate D2E/DX2                !
 ! A208  A(62,94,95)           111.8408         estimate D2E/DX2                !
 ! A209  A(62,94,96)           111.8307         estimate D2E/DX2                !
 ! A210  A(62,94,97)           109.61           estimate D2E/DX2                !
 ! A211  A(95,94,96)           108.4402         estimate D2E/DX2                !
 ! A212  A(95,94,97)           107.4506         estimate D2E/DX2                !
 ! A213  A(96,94,97)           107.478          estimate D2E/DX2                !
 ! A214  A(61,98,99)           110.4097         estimate D2E/DX2                !
 ! A215  A(61,98,100)          111.8389         estimate D2E/DX2                !
 ! A216  A(61,98,101)          110.825          estimate D2E/DX2                !
 ! A217  A(99,98,100)          107.6292         estimate D2E/DX2                !
 ! A218  A(99,98,101)          108.2194         estimate D2E/DX2                !
 ! A219  A(100,98,101)         107.7748         estimate D2E/DX2                !
 ! A220  A(61,102,103)         111.8102         estimate D2E/DX2                !
 ! A221  A(61,102,104)         110.4228         estimate D2E/DX2                !
 ! A222  A(61,102,105)         110.8199         estimate D2E/DX2                !
 ! A223  A(103,102,104)        107.651          estimate D2E/DX2                !
 ! A224  A(103,102,105)        107.7764         estimate D2E/DX2                !
 ! A225  A(104,102,105)        108.2179         estimate D2E/DX2                !
 ! A226  A(61,106,107)         111.8425         estimate D2E/DX2                !
 ! A227  A(61,106,108)         111.8322         estimate D2E/DX2                !
 ! A228  A(61,106,109)         109.6094         estimate D2E/DX2                !
 ! A229  A(107,106,108)        108.4405         estimate D2E/DX2                !
 ! A230  A(107,106,109)        107.449          estimate D2E/DX2                !
 ! A231  A(108,106,109)        107.4765         estimate D2E/DX2                !
 ! A232  A(69,110,111)         111.8532         estimate D2E/DX2                !
 ! A233  A(69,110,112)         110.4249         estimate D2E/DX2                !
 ! A234  A(69,110,113)         110.7867         estimate D2E/DX2                !
 ! A235  A(111,110,112)        107.6129         estimate D2E/DX2                !
 ! A236  A(111,110,113)        107.8095         estimate D2E/DX2                !
 ! A237  A(112,110,113)        108.2103         estimate D2E/DX2                !
 ! A238  A(69,114,115)         111.8892         estimate D2E/DX2                !
 ! A239  A(69,114,116)         110.7787         estimate D2E/DX2                !
 ! A240  A(69,114,117)         110.4127         estimate D2E/DX2                !
 ! A241  A(115,114,116)        107.7095         estimate D2E/DX2                !
 ! A242  A(115,114,117)        107.6625         estimate D2E/DX2                !
 ! A243  A(116,114,117)        108.2446         estimate D2E/DX2                !
 ! A244  A(69,118,119)         111.7537         estimate D2E/DX2                !
 ! A245  A(69,118,120)         111.7873         estimate D2E/DX2                !
 ! A246  A(69,118,121)         109.6863         estimate D2E/DX2                !
 ! A247  A(119,118,120)        108.4282         estimate D2E/DX2                !
 ! A248  A(119,118,121)        107.489          estimate D2E/DX2                !
 ! A249  A(120,118,121)        107.513          estimate D2E/DX2                !
 ! A250  A(68,122,123)         111.7666         estimate D2E/DX2                !
 ! A251  A(68,122,124)         110.5077         estimate D2E/DX2                !
 ! A252  A(68,122,125)         110.7669         estimate D2E/DX2                !
 ! A253  A(123,122,124)        107.6794         estimate D2E/DX2                !
 ! A254  A(123,122,125)        107.7507         estimate D2E/DX2                !
 ! A255  A(124,122,125)        108.2281         estimate D2E/DX2                !
 ! A256  A(68,126,127)         111.7883         estimate D2E/DX2                !
 ! A257  A(68,126,128)         111.8271         estimate D2E/DX2                !
 ! A258  A(68,126,129)         109.6631         estimate D2E/DX2                !
 ! A259  A(127,126,128)        108.3878         estimate D2E/DX2                !
 ! A260  A(127,126,129)        107.5223         estimate D2E/DX2                !
 ! A261  A(128,126,129)        107.4655         estimate D2E/DX2                !
 ! A262  A(68,130,131)         110.7404         estimate D2E/DX2                !
 ! A263  A(68,130,132)         110.5105         estimate D2E/DX2                !
 ! A264  A(68,130,133)         111.8446         estimate D2E/DX2                !
 ! A265  A(131,130,132)        108.1624         estimate D2E/DX2                !
 ! A266  A(131,130,133)        107.8014         estimate D2E/DX2                !
 ! A267  A(132,130,133)        107.6361         estimate D2E/DX2                !
 ! A268  A(67,134,135)         111.8504         estimate D2E/DX2                !
 ! A269  A(67,134,136)         111.7902         estimate D2E/DX2                !
 ! A270  A(67,134,137)         109.6477         estimate D2E/DX2                !
 ! A271  A(135,134,136)        108.4318         estimate D2E/DX2                !
 ! A272  A(135,134,137)        107.4639         estimate D2E/DX2                !
 ! A273  A(136,134,137)        107.4672         estimate D2E/DX2                !
 ! A274  A(67,138,139)         110.4981         estimate D2E/DX2                !
 ! A275  A(67,138,140)         111.7756         estimate D2E/DX2                !
 ! A276  A(67,138,141)         110.7989         estimate D2E/DX2                !
 ! A277  A(139,138,140)        107.6496         estimate D2E/DX2                !
 ! A278  A(139,138,141)        108.2298         estimate D2E/DX2                !
 ! A279  A(140,138,141)        107.7456         estimate D2E/DX2                !
 ! A280  A(67,142,143)         110.7955         estimate D2E/DX2                !
 ! A281  A(67,142,144)         111.7978         estimate D2E/DX2                !
 ! A282  A(67,142,145)         110.4839         estimate D2E/DX2                !
 ! A283  A(143,142,144)        107.6804         estimate D2E/DX2                !
 ! A284  A(143,142,145)        108.2681         estimate D2E/DX2                !
 ! A285  A(144,142,145)        107.6723         estimate D2E/DX2                !
 ! A286  A(66,146,147)         111.7879         estimate D2E/DX2                !
 ! A287  A(66,146,148)         110.4884         estimate D2E/DX2                !
 ! A288  A(66,146,149)         110.8            estimate D2E/DX2                !
 ! A289  A(147,146,148)        107.6447         estimate D2E/DX2                !
 ! A290  A(147,146,149)        107.7537         estimate D2E/DX2                !
 ! A291  A(148,146,149)        108.2226         estimate D2E/DX2                !
 ! A292  A(66,150,151)         110.7695         estimate D2E/DX2                !
 ! A293  A(66,150,152)         110.4759         estimate D2E/DX2                !
 ! A294  A(66,150,153)         111.7792         estimate D2E/DX2                !
 ! A295  A(151,150,152)        108.3018         estimate D2E/DX2                !
 ! A296  A(151,150,153)        107.7035         estimate D2E/DX2                !
 ! A297  A(152,150,153)        107.6712         estimate D2E/DX2                !
 ! A298  A(66,154,155)         111.797          estimate D2E/DX2                !
 ! A299  A(66,154,156)         111.8197         estimate D2E/DX2                !
 ! A300  A(66,154,157)         109.63           estimate D2E/DX2                !
 ! A301  A(155,154,156)        108.4269         estimate D2E/DX2                !
 ! A302  A(155,154,157)        107.4893         estimate D2E/DX2                !
 ! A303  A(156,154,157)        107.4913         estimate D2E/DX2                !
 ! D1    D(4,1,3,7)             -1.4132         estimate D2E/DX2                !
 ! D2    D(4,1,3,8)            178.1082         estimate D2E/DX2                !
 ! D3    D(63,1,3,7)          -178.4541         estimate D2E/DX2                !
 ! D4    D(63,1,3,8)             1.0673         estimate D2E/DX2                !
 ! D5    D(3,1,4,6)           -177.8754         estimate D2E/DX2                !
 ! D6    D(3,1,4,9)              1.3482         estimate D2E/DX2                !
 ! D7    D(63,1,4,6)            -0.2649         estimate D2E/DX2                !
 ! D8    D(63,1,4,9)           178.9587         estimate D2E/DX2                !
 ! D9    D(3,1,63,2)           177.5004         estimate D2E/DX2                !
 ! D10   D(3,1,63,19)           -3.0309         estimate D2E/DX2                !
 ! D11   D(4,1,63,2)             0.1853         estimate D2E/DX2                !
 ! D12   D(4,1,63,19)          179.654          estimate D2E/DX2                !
 ! D13   D(6,2,5,10)            -1.4738         estimate D2E/DX2                !
 ! D14   D(6,2,5,11)           178.0424         estimate D2E/DX2                !
 ! D15   D(63,2,5,10)         -178.3961         estimate D2E/DX2                !
 ! D16   D(63,2,5,11)            1.1201         estimate D2E/DX2                !
 ! D17   D(5,2,6,4)           -177.6518         estimate D2E/DX2                !
 ! D18   D(5,2,6,12)             1.4515         estimate D2E/DX2                !
 ! D19   D(63,2,6,4)            -0.1344         estimate D2E/DX2                !
 ! D20   D(63,2,6,12)          178.9689         estimate D2E/DX2                !
 ! D21   D(5,2,63,1)           177.1784         estimate D2E/DX2                !
 ! D22   D(5,2,63,19)           -2.2884         estimate D2E/DX2                !
 ! D23   D(6,2,63,1)            -0.0278         estimate D2E/DX2                !
 ! D24   D(6,2,63,19)         -179.4947         estimate D2E/DX2                !
 ! D25   D(1,3,7,13)             0.4769         estimate D2E/DX2                !
 ! D26   D(1,3,7,14)          -179.6958         estimate D2E/DX2                !
 ! D27   D(8,3,7,13)          -179.054          estimate D2E/DX2                !
 ! D28   D(8,3,7,14)             0.7733         estimate D2E/DX2                !
 ! D29   D(1,4,6,2)              0.244          estimate D2E/DX2                !
 ! D30   D(1,4,6,12)          -178.6902         estimate D2E/DX2                !
 ! D31   D(9,4,6,2)           -178.8326         estimate D2E/DX2                !
 ! D32   D(9,4,6,12)             2.2333         estimate D2E/DX2                !
 ! D33   D(1,4,9,13)            -0.2979         estimate D2E/DX2                !
 ! D34   D(1,4,9,15)          -179.9979         estimate D2E/DX2                !
 ! D35   D(6,4,9,13)           178.6835         estimate D2E/DX2                !
 ! D36   D(6,4,9,15)            -1.0165         estimate D2E/DX2                !
 ! D37   D(2,5,10,16)            0.4522         estimate D2E/DX2                !
 ! D38   D(2,5,10,17)         -179.6737         estimate D2E/DX2                !
 ! D39   D(11,5,10,16)        -179.0736         estimate D2E/DX2                !
 ! D40   D(11,5,10,17)           0.8005         estimate D2E/DX2                !
 ! D41   D(2,6,12,16)           -0.3584         estimate D2E/DX2                !
 ! D42   D(2,6,12,18)          179.9643         estimate D2E/DX2                !
 ! D43   D(4,6,12,16)          178.4659         estimate D2E/DX2                !
 ! D44   D(4,6,12,18)           -1.2115         estimate D2E/DX2                !
 ! D45   D(3,7,13,9)             0.5289         estimate D2E/DX2                !
 ! D46   D(3,7,13,61)         -179.7851         estimate D2E/DX2                !
 ! D47   D(14,7,13,9)         -179.2942         estimate D2E/DX2                !
 ! D48   D(14,7,13,61)           0.3918         estimate D2E/DX2                !
 ! D49   D(4,9,13,7)            -0.6113         estimate D2E/DX2                !
 ! D50   D(4,9,13,61)          179.693          estimate D2E/DX2                !
 ! D51   D(15,9,13,7)          179.0844         estimate D2E/DX2                !
 ! D52   D(15,9,13,61)          -0.6112         estimate D2E/DX2                !
 ! D53   D(5,10,16,12)           0.5956         estimate D2E/DX2                !
 ! D54   D(5,10,16,62)        -179.7468         estimate D2E/DX2                !
 ! D55   D(17,10,16,12)       -179.2755         estimate D2E/DX2                !
 ! D56   D(17,10,16,62)          0.3822         estimate D2E/DX2                !
 ! D57   D(6,12,16,10)          -0.6337         estimate D2E/DX2                !
 ! D58   D(6,12,16,62)         179.6979         estimate D2E/DX2                !
 ! D59   D(18,12,16,10)        179.0391         estimate D2E/DX2                !
 ! D60   D(18,12,16,62)         -0.6293         estimate D2E/DX2                !
 ! D61   D(7,13,61,98)        -119.8657         estimate D2E/DX2                !
 ! D62   D(7,13,61,102)        120.2423         estimate D2E/DX2                !
 ! D63   D(7,13,61,106)          0.2089         estimate D2E/DX2                !
 ! D64   D(9,13,61,98)          59.8152         estimate D2E/DX2                !
 ! D65   D(9,13,61,102)        -60.0768         estimate D2E/DX2                !
 ! D66   D(9,13,61,106)        179.8898         estimate D2E/DX2                !
 ! D67   D(10,16,62,86)       -119.7337         estimate D2E/DX2                !
 ! D68   D(10,16,62,90)        120.3754         estimate D2E/DX2                !
 ! D69   D(10,16,62,94)          0.3392         estimate D2E/DX2                !
 ! D70   D(12,16,62,86)         59.9184         estimate D2E/DX2                !
 ! D71   D(12,16,62,90)        -59.9725         estimate D2E/DX2                !
 ! D72   D(12,16,62,94)        179.9912         estimate D2E/DX2                !
 ! D73   D(24,19,20,21)          0.3093         estimate D2E/DX2                !
 ! D74   D(24,19,20,85)        179.7836         estimate D2E/DX2                !
 ! D75   D(63,19,20,21)        179.3883         estimate D2E/DX2                !
 ! D76   D(63,19,20,85)         -1.1374         estimate D2E/DX2                !
 ! D77   D(20,19,24,23)         -2.0753         estimate D2E/DX2                !
 ! D78   D(20,19,24,84)        176.5135         estimate D2E/DX2                !
 ! D79   D(63,19,24,23)        178.843          estimate D2E/DX2                !
 ! D80   D(63,19,24,84)         -2.5682         estimate D2E/DX2                !
 ! D81   D(20,19,63,1)         133.634          estimate D2E/DX2                !
 ! D82   D(20,19,63,2)         -46.9895         estimate D2E/DX2                !
 ! D83   D(24,19,63,1)         -47.3046         estimate D2E/DX2                !
 ! D84   D(24,19,63,2)         132.0719         estimate D2E/DX2                !
 ! D85   D(19,20,21,22)          2.1178         estimate D2E/DX2                !
 ! D86   D(19,20,21,64)       -176.6293         estimate D2E/DX2                !
 ! D87   D(85,20,21,22)       -177.3698         estimate D2E/DX2                !
 ! D88   D(85,20,21,64)          3.8831         estimate D2E/DX2                !
 ! D89   D(20,21,22,23)         -2.7182         estimate D2E/DX2                !
 ! D90   D(20,21,22,70)        171.5858         estimate D2E/DX2                !
 ! D91   D(64,21,22,23)        175.9339         estimate D2E/DX2                !
 ! D92   D(64,21,22,70)         -9.7621         estimate D2E/DX2                !
 ! D93   D(20,21,64,25)        -88.717          estimate D2E/DX2                !
 ! D94   D(20,21,64,26)         93.2206         estimate D2E/DX2                !
 ! D95   D(22,21,64,25)         92.5778         estimate D2E/DX2                !
 ! D96   D(22,21,64,26)        -85.4846         estimate D2E/DX2                !
 ! D97   D(21,22,23,24)          0.9729         estimate D2E/DX2                !
 ! D98   D(21,22,23,65)       -175.198          estimate D2E/DX2                !
 ! D99   D(70,22,23,24)       -173.5172         estimate D2E/DX2                !
 ! D100  D(70,22,23,65)         10.3119         estimate D2E/DX2                !
 ! D101  D(21,22,70,71)        123.2964         estimate D2E/DX2                !
 ! D102  D(21,22,70,82)       -121.4654         estimate D2E/DX2                !
 ! D103  D(21,22,70,83)          8.9989         estimate D2E/DX2                !
 ! D104  D(23,22,70,71)        -62.4746         estimate D2E/DX2                !
 ! D105  D(23,22,70,82)         52.7635         estimate D2E/DX2                !
 ! D106  D(23,22,70,83)       -176.7721         estimate D2E/DX2                !
 ! D107  D(22,23,24,19)          1.4346         estimate D2E/DX2                !
 ! D108  D(22,23,24,84)       -177.1814         estimate D2E/DX2                !
 ! D109  D(65,23,24,19)        177.7949         estimate D2E/DX2                !
 ! D110  D(65,23,24,84)         -0.8211         estimate D2E/DX2                !
 ! D111  D(22,23,65,43)       -102.0528         estimate D2E/DX2                !
 ! D112  D(22,23,65,44)        102.605          estimate D2E/DX2                !
 ! D113  D(24,23,65,43)         81.6256         estimate D2E/DX2                !
 ! D114  D(24,23,65,44)        -73.7166         estimate D2E/DX2                !
 ! D115  D(28,25,27,31)         -0.1272         estimate D2E/DX2                !
 ! D116  D(28,25,27,32)        179.2559         estimate D2E/DX2                !
 ! D117  D(64,25,27,31)        179.6709         estimate D2E/DX2                !
 ! D118  D(64,25,27,32)         -0.946          estimate D2E/DX2                !
 ! D119  D(27,25,28,30)       -179.7876         estimate D2E/DX2                !
 ! D120  D(27,25,28,33)          0.2123         estimate D2E/DX2                !
 ! D121  D(64,25,28,30)          0.3766         estimate D2E/DX2                !
 ! D122  D(64,25,28,33)       -179.6235         estimate D2E/DX2                !
[...]
   D416      -1.04784   0.00000   0.00025  -0.00074  -0.00050  -1.04833
   D417       1.03295  -0.00001   0.00028  -0.00087  -0.00059   1.03236
   D418       1.04832  -0.00001   0.00040  -0.00114  -0.00074   1.04758
   D419      -3.11255   0.00000   0.00036  -0.00093  -0.00057  -3.11312
   D420      -1.03176  -0.00001   0.00039  -0.00105  -0.00066  -1.03242
   D421      -1.28632  -0.00158   0.00161  -0.00311  -0.00152  -1.28784
   D422       1.87002  -0.00212  -0.00011  -0.00002  -0.00015   1.86987
   D423       2.90249   0.00081   0.00031   0.00546   0.00579   2.90828
   D424      -0.22436   0.00027  -0.00141   0.00855   0.00716  -0.21720
   D425       0.69315   0.00086  -0.00287   0.00881   0.00595   0.69910
   D426      -2.43370   0.00032  -0.00459   0.01190   0.00732  -2.42638
   D427      -3.13397  -0.00074   0.00014  -0.00608  -0.00592  -3.13989
   D428      -0.00985  -0.00062   0.00180  -0.00570  -0.00390  -0.01375
   D429      -0.00729  -0.00021   0.00189  -0.00923  -0.00734  -0.01463
   D430       3.11683  -0.00008   0.00355  -0.00886  -0.00531   3.11152
   D431       3.13838   0.00081   0.00086   0.00550   0.00637  -3.13844
   D432      -0.00492   0.00028   0.00448  -0.00547  -0.00097  -0.00589
   D433       0.01191   0.00025  -0.00087   0.00866   0.00780   0.01970
   D434      -3.13139  -0.00028   0.00276  -0.00231   0.00046  -3.13093
   D435      -0.00266   0.00004  -0.00167   0.00419   0.00252  -0.00014
   D436       3.13849   0.00007  -0.00018   0.00191   0.00173   3.14022
   D437      -3.12655  -0.00009  -0.00333   0.00380   0.00046  -3.12609
   D438       0.01460  -0.00006  -0.00185   0.00152  -0.00033   0.01427
   D439      -0.00661  -0.00013  -0.00037  -0.00308  -0.00345  -0.01005
   D440       3.12686  -0.00025   0.00023  -0.00627  -0.00604   3.12082
   D441       3.13673   0.00042  -0.00409   0.00810   0.00403   3.14076
   D442      -0.01299   0.00029  -0.00349   0.00492   0.00144  -0.01156
   D443       0.00783   0.00008   0.00045   0.00123   0.00168   0.00951
   D444      -3.13443   0.00006   0.00058  -0.00026   0.00032  -3.13411
   D445      -3.13332   0.00005  -0.00104   0.00351   0.00247  -3.13084
   D446       0.00760   0.00003  -0.00091   0.00202   0.00112   0.00872
   D447      -0.00315  -0.00003   0.00058  -0.00179  -0.00121  -0.00436
   D448       3.13912  -0.00001   0.00045  -0.00030   0.00015   3.13927
   D449      -3.13655   0.00009  -0.00002   0.00142   0.00140  -3.13515
   D450       0.00571   0.00011  -0.00015   0.00291   0.00276   0.00847
         Item               Value     Threshold  Converged?
 Maximum Force            0.009826     0.000450     NO 
 RMS     Force            0.000677     0.000300     NO 
 Maximum Displacement     0.359866     0.001800     NO 
 RMS     Displacement     0.082517     0.001200     NO 
 Predicted change in Energy=-4.476137D-04
 Lowest energy point so far.  Saving SCF results.
 GradGradGradGradGradGradGradGradGradGradGradGradGradGradGradGradGradGrad

 Leave Link  103 at Fri Nov  8 10:02:42 2024, MaxMem=  2147483648 cpu:              14.4 elap:               1.1
 (Enter /apps/gaussian/g16/l202.exe)
 Stoichiometry    C72H79N3O2S
 Framework group  C1[X(C72H79N3O2S)]
 Deg. of freedom   465
 Full point group                 C1      NOp   1
 RotChk:  IX=0 Diff= 8.38D-02
 Largest Abelian subgroup         C1      NOp   1
 Largest concise Abelian subgroup C1      NOp   1
                         Standard orientation:                         
 ---------------------------------------------------------------------
 Center     Atomic      Atomic             Coordinates (Angstroms)
 Number     Number       Type             X           Y           Z
 ---------------------------------------------------------------------
      1          6           0        0.740931    3.984809    0.532030
      2          6           0       -0.426019    3.772227   -1.385378
      3          6           0        1.411143    3.767197    1.732662
      4          6           0        0.635398    5.282188   -0.019824
      5          6           0       -1.139494    3.302721   -2.484521
      6          6           0       -0.122747    5.147278   -1.248867
      7          6           0        1.980827    4.867299    2.368398
      8          1           0        1.495534    2.772406    2.155756
      9          6           0        1.215519    6.363408    0.643806
     10          6           0       -1.551472    4.227749   -3.440593
     11          1           0       -1.359678    2.246620   -2.596576
     12          6           0       -0.549733    6.047920   -2.224212
     13          6           0        1.900848    6.175387    1.848728
     14          1           0        2.505156    4.690611    3.299752
     15          1           0        1.129858    7.355417    0.210455
     16          6           0       -1.274175    5.605765   -3.336686
     17          1           0       -2.103096    3.854188   -4.295060
     18          1           0       -0.309260    7.100676   -2.109515
     19          6           0       -0.017899    1.683921   -0.072458
     20          6           0       -1.257154    1.091209    0.186000
     21          6           0       -1.366142   -0.258961    0.448615
     22          6           0       -0.220208   -1.153458    0.478316
     23          6           0        1.039273   -0.495142    0.180297
     24          6           0        1.127809    0.844155   -0.094519
     25          6           0       -3.392850   -0.763733    1.804293
     26          6           0       -3.486843   -1.302590   -0.371874
     27          6           0       -2.975207   -0.319340    3.059213
     28          6           0       -4.678148   -1.330344    1.595423
     29          6           0       -3.177653   -1.495403   -1.711834
     30          6           0       -4.735594   -1.681744    0.173000
     31          6           0       -3.873049   -0.451521    4.116298
     32          1           0       -1.984532    0.092800    3.197745
     33          6           0       -5.543721   -1.449333    2.657358
     34          6           0       -4.154705   -2.087746   -2.516553
     35          1           0       -2.211792   -1.205514   -2.105686
     36          6           0       -5.683839   -2.260701   -0.643216
     37          6           0       -5.150689   -1.008633    3.951829
     38          1           0       -3.555162   -0.117994    5.094763
     39          1           0       -6.524784   -1.887430    2.513410
     40          6           0       -5.404637   -2.478558   -2.016810
     41          1           0       -3.921004   -2.245435   -3.561274
     42          1           0       -6.642903   -2.557505   -0.233428
     43          6           0        3.217299   -1.398912    1.049866
     44          6           0        2.768805   -1.709311   -1.137896
     45          6           0        3.177203   -1.045036    2.397417
     46          6           0        4.368559   -1.982738    0.483113
     47          6           0        2.188432   -1.739741   -2.400860
     48          6           0        4.080547   -2.187548   -0.923062
     49          6           0        4.308082   -1.294244    3.160715
     50          1           0        2.283453   -0.617529    2.834092
     51          6           0        5.491074   -2.229103    1.282119
     52          6           0        2.937137   -2.269199   -3.448045
     53          1           0        1.182884   -1.368709   -2.561787
     54          6           0        4.805266   -2.711301   -1.992967
     55          6           0        5.479562   -1.887448    2.633685
     56          1           0        4.277474   -1.026085    4.212059
     57          1           0        6.365787   -2.681045    0.829414
     58          6           0        4.244577   -2.765559   -3.273979
     59          1           0        2.478543   -2.295904   -4.428958
     60          1           0        5.813492   -3.075236   -1.819123
     61          6           0        2.538886    7.385942    2.554906
     62          6           0       -1.733222    6.624589   -4.396005
     63          7           0        0.095093    3.074137   -0.300908
     64          7           0       -2.699324   -0.752717    0.624431
     65          7           0        2.234079   -1.269708    0.069804
     66          6           0       -6.136511   -1.170597    5.115579
     67          6           0       -6.478239   -3.135569   -2.896130
     68          6           0        5.068315   -3.350033   -4.436166
     69          6           0        6.681227   -2.131749    3.562825
     70         16           0       -0.283212   -2.748758    1.165476
     71          6           0        0.376684   -3.869175   -0.077422
     72          6           0       -0.407659   -4.169271   -1.192023
     73          6           0        1.637879   -4.433080    0.092401
     74          6           0        0.091180   -5.036314   -2.159245
     75          1           0       -1.398353   -3.737526   -1.285560
     76          6           0        2.131328   -5.295675   -0.884990
     77          1           0        2.218566   -4.187674    0.973932
     78          6           0        1.362702   -5.594830   -2.008353
     79          1           0       -0.509975   -5.278068   -3.029499
     80          1           0        3.120456   -5.723799   -0.769845
     81          1           0        1.751730   -6.264997   -2.767514
     82          8           0        0.589064   -2.873439    2.344511
     83          8           0       -1.710419   -3.109826    1.306804
     84          1           0        2.092385    1.264056   -0.357116
     85          1           0       -2.155224    1.700251    0.171032
     86          6           0       -0.498876    7.329767   -5.002072
     87          1           0       -0.806031    8.056934   -5.761782
     88          1           0        0.075345    7.866300   -4.241665
     89          1           0        0.170167    6.603486   -5.473191
     90          6           0       -2.652291    7.676400   -3.734910
     91          1           0       -2.137668    8.219955   -2.937696
     92          1           0       -2.990272    8.410835   -4.474285
     93          1           0       -3.534727    7.200037   -3.296982
     94          6           0       -2.515839    5.964376   -5.545665
     95          1           0       -1.908453    5.226648   -6.079452
     96          1           0       -3.424162    5.469592   -5.187314
     97          1           0       -2.819759    6.726520   -6.269865
     98          6           0        1.442656    8.419986    2.897109
     99          1           0        1.878399    9.288789    3.402701
    100          1           0        0.930571    8.780031    2.000355
    101          1           0        0.688707    7.981679    3.558012
    102          6           0        3.583377    8.035347    1.619239
    103          1           0        3.130572    8.385053    0.687200
    104          1           0        4.051803    8.897814    2.106098
    105          1           0        4.369199    7.319763    1.359585
    106          6           0        3.249784    6.995212    3.863315
    107          1           0        2.556687    6.553563    4.586293
    108          1           0        4.063403    6.284678    3.687308
    109          1           0        3.685047    7.886222    4.326280
    110          6           0        7.160433   -0.785948    4.152331
    111          1           0        6.375404   -0.295485    4.734596
    112          1           0        8.018669   -0.941197    4.815440
    113          1           0        7.462630   -0.099552    3.355606
    114          6           0        6.261188   -3.076551    4.711527
    115          1           0        5.450694   -2.652660    5.310704
    116          1           0        5.915007   -4.036314    4.316510
    117          1           0        7.107191   -3.265810    5.381571
    118          6           0        7.867539   -2.777535    2.824883
    119          1           0        7.601572   -3.753414    2.406490
    120          1           0        8.234161   -2.142183    2.012449
    121          1           0        8.696418   -2.932586    3.522505
    122          6           0        6.345814   -2.504162   -4.637593
    123          1           0        6.973110   -2.499829   -3.741851
    124          1           0        6.945797   -2.902670   -5.463287
    125          1           0        6.090150   -1.465945   -4.869455
    126          6           0        4.288321   -3.359403   -5.763265
    127          1           0        3.377466   -3.962593   -5.693846
    128          1           0        4.009411   -2.348905   -6.077757
    129          1           0        4.910627   -3.790084   -6.553905
    130          6           0        5.464748   -4.806885   -4.107191
    131          1           0        4.574853   -5.425662   -3.958797
    132          1           0        6.051337   -5.240131   -4.924859
    133          1           0        6.068436   -4.867597   -3.197420
    134          6           0       -6.022629   -3.294381   -4.357310
    135          1           0       -5.801494   -2.329255   -4.823292
    136          1           0       -5.138513   -3.933487   -4.441826
    137          1           0       -6.821287   -3.763035   -4.938962
    138          6           0       -7.753986   -2.261463   -2.878168
    139          1           0       -8.526634   -2.713802   -3.507725
    140          1           0       -8.168368   -2.158825   -1.871528
    141          1           0       -7.545962   -1.258389   -3.261453
    142          6           0       -6.801384   -4.539571   -2.333170
    143          1           0       -5.908330   -5.170632   -2.321103
    144          1           0       -7.194307   -4.493843   -1.313925
    145          1           0       -7.557033   -5.027768   -2.956580
    146          6           0       -7.430595   -0.385138    4.796522
    147          1           0       -7.923244   -0.751055    3.891645
    148          1           0       -8.141063   -0.487787    5.622573
    149          1           0       -7.218686    0.679114    4.659648
    150          6           0       -6.467336   -2.672393    5.287224
    151          1           0       -5.562411   -3.250325    5.493313
    152          1           0       -7.158742   -2.807099    6.124838
    153          1           0       -6.941471   -3.094608    4.397182
    154          6           0       -5.568028   -0.645872    6.445767
    155          1           0       -4.666673   -1.188090    6.746165
    156          1           0       -5.334068    0.421925    6.397020
    157          1           0       -6.310419   -0.782099    7.236963
 ---------------------------------------------------------------------
 Rotational constants (GHZ):           0.0208046           0.0199490           0.0159156
 Leave Link  202 at Fri Nov  8 10:02:46 2024, MaxMem=  2147483648 cpu:               0.1 elap:               0.0
 (Enter /apps/gaussian/g16/l301.exe)
 Standard basis: 6-31G(d,p) (6D, 7F)
 Ernie: Thresh=  0.10000D-02 Tol=  0.10000D-05 Strict=F.
 There are  1569 symmetry adapted cartesian basis functions of A   symmetry.
 There are  1569 symmetry adapted basis functions of A   symmetry.
  1569 basis functions,  2761 primitive gaussians,  1569 cartesian basis functions
   282 alpha electrons      282 beta electrons
       nuclear repulsion energy     13383.4936591177 Hartrees.
 IExCor= 4639 DFT=T Ex+Corr=wB97XD ExCW=0 ScaHFX=  1.000000
 ScaDFX=  1.000000  1.000000  1.000000  1.000000 ScalE2=  1.000000  1.000000
 IRadAn=      5 IRanWt=     -1 IRanGd=            0 ICorTp=0 IEmpDi=121
 HFx  wShort=  0.000000 wLong=  0.109400 cFull=  0.222036 cShort=  0.000000 cLong=  0.777964
 DFx  wShort=  0.000000 wLong=  0.109400 cFull=  0.000000 cShort=  0.000000 cLong=  1.000000
 NAtoms=  157 NActive=  157 NUniq=  157 SFac= 1.00D+00 NAtFMM=   60 NAOKFM=T Big=T
 Integral buffers will be    131072 words long.
 Raffenetti 1 integral format.
 Two-electron integral symmetry is turned on.
 R6Disp:  Grimme-D2 Dispersion energy=       -0.1677964923 Hartrees.
 Nuclear repulsion after empirical dispersion term =    13383.3258626254 Hartrees.
 Leave Link  301 at Fri Nov  8 10:02:46 2024, MaxMem=  2147483648 cpu:               0.9 elap:               0.1
 (Enter /apps/gaussian/g16/l302.exe)
 NPDir=0 NMtPBC=     1 NCelOv=     1 NCel=       1 NClECP=     1 NCelD=      1
         NCelK=      1 NCelE2=     1 NClLst=     1 CellRange=     0.0.
 One-electron integrals computed using PRISM.
 One-electron integral symmetry used in STVInt
 NBasis=  1569 RedAO= T EigKep=  2.53D-04  NBF=  1569
 NBsUse=  1569 1.00D-06 EigRej= -1.00D+00 NBFU=  1569
 Precomputing XC quadrature grid using
 IXCGrd= 4 IRadAn=           5 IRanWt=          -1 IRanGd=           0 AccXCQ= 0.00D+00.
 Generated NRdTot=       0 NPtTot=           0 NUsed=           0 NTot=          32
 NSgBfM=  1258  1251  1256  1257  1258 MxSgAt=   157 MxSgA2=   157.
 Leave Link  302 at Fri Nov  8 10:02:52 2024, MaxMem=  2147483648 cpu:              95.5 elap:               6.0
 (Enter /apps/gaussian/g16/l303.exe)
 DipDrv:  MaxL=1.
 Leave Link  303 at Fri Nov  8 10:02:52 2024, MaxMem=  2147483648 cpu:               3.5 elap:               0.3
 (Enter /apps/gaussian/g16/l308.exe)
 Leave Link  308 at Fri Nov  8 10:02:53 2024, MaxMem=  2147483648 cpu:               4.8 elap:               0.4
 (Enter /apps/gaussian/g16/l401.exe)
 Initial guess from the checkpoint file:  "YZ-IX-165.chk"
 B after Tr=     0.000000    0.000000   -0.000000
         Rot=    0.999562    0.010799    0.007534   -0.026486 Ang=   3.39 deg.
 Guess basis will be translated and rotated to current coordinates.
 JPrj=2 DoOrth=T DoCkMO=T.
 Generating alternative initial guess.
 ExpMin= 1.17D-01 ExpMax= 2.19D+04 ExpMxC= 3.30D+03 IAcc=3 IRadAn=         5 AccDes= 0.00D+00
 Harris functional with IExCor= 4639 and IRadAn=       5 diagonalized for initial guess.
 HarFok:  IExCor= 4639 AccDes= 0.00D+00 IRadAn=         5 IDoV= 1 UseB2=F ITyADJ=14
 ICtDFT=  3500011 ScaDFX=  1.000000  1.000000  1.000000  1.000000
 FoFCou: FMM=F IPFlag=           0 FMFlag=      100000 FMFlg1=        2001
         NFxFlg=           0 DoJE=T BraDBF=F KetDBF=T FulRan=T
         wScrn=  0.000000 ICntrl=       500 IOpCl=  0 I1Cent=   200000004 NGrid=           0
         NMat0=    1 NMatS0=      1 NMatT0=    0 NMatD0=    1 NMtDS0=    0 NMtDT0=    0
 Petite list used in FoFCou.
 Harris En= -3375.55667044181    
 Leave Link  401 at Fri Nov  8 10:03:05 2024, MaxMem=  2147483648 cpu:             191.9 elap:              12.1
 (Enter /apps/gaussian/g16/l502.exe)
 Integral symmetry usage will be decided dynamically.
 Closed shell SCF:
 Using DIIS extrapolation, IDIIS=  1040.
 NGot=  2147483648 LenX=  2142514845 LenY=  2140051515
 Requested convergence on RMS density matrix=1.00D-08 within 128 cycles.
 Requested convergence on MAX density matrix=1.00D-06.
 Requested convergence on             energy=1.00D-06.
 No special actions if energy rises.
 Fock matrices will be formed incrementally for  20 cycles.
 Integral accuracy reduced to 1.0D-05 until final iterations.

 Cycle   1  Pass 0  IDiag  1:
 FoFJK:  IHMeth= 1 ICntrl=       0 DoSepK=T KAlg= 0 I1Cent=           0 FoldK=F
 IRaf=         1 NMat=       1 IRICut=       1 DoRegI=T DoRafI=F ISym2E= 0 IDoP0=0 IntGTp=1.
 FoFCou: FMM=T IPFlag=           0 FMFlag=      100000 FMFlg1=        2001
         NFxFlg=           0 DoJE=T BraDBF=F KetDBF=F FulRan=T
         wScrn=  0.000000 ICntrl=       500 IOpCl=  0 I1Cent=           0 NGrid=           0
         NMat0=    1 NMatS0=      1 NMatT0=    0 NMatD0=    1 NMtDS0=    0 NMtDT0=    0
 Symmetry not used in FoFCou.
 FMM levels:  10  Number of levels for PrismC:   9
